  48  48   1   0
  0.1074376E+02  0.5882789E-09  0.8851340E-09  0.1010433E-08  0.5000000E-15
  1.000000000000000E-004
  CAR 
 unknown system                          
     12.57353201    -50.51427708  301     -1.04292011      1.00000000
    -50.514  0.0000E+00  0.0000E+00  0.0000E+00  0.0000E+00
    -50.304  0.0000E+00  0.0000E+00  0.0000E+00  0.0000E+00
    -50.094  0.0000E+00  0.0000E+00  0.0000E+00  0.0000E+00
    -49.883  0.0000E+00  0.0000E+00  0.0000E+00  0.0000E+00
    -49.673  0.0000E+00  0.0000E+00  0.0000E+00  0.0000E+00
    -49.463  0.0000E+00  0.0000E+00  0.0000E+00  0.0000E+00
    -49.253  0.0000E+00  0.0000E+00  0.0000E+00  0.0000E+00
    -49.042  0.0000E+00  0.0000E+00  0.0000E+00  0.0000E+00
    -48.832  0.0000E+00  0.0000E+00  0.0000E+00  0.0000E+00
    -48.622  0.0000E+00  0.0000E+00  0.0000E+00  0.0000E+00
    -48.411  0.0000E+00  0.0000E+00  0.0000E+00  0.0000E+00
    -48.201  0.0000E+00  0.0000E+00  0.0000E+00  0.0000E+00
    -47.991  0.0000E+00  0.0000E+00  0.0000E+00  0.0000E+00
    -47.780  0.7298E-05  0.7362E-05  0.1535E-05  0.1548E-05
    -47.570  0.9458E-01  0.9459E-01  0.1989E-01  0.1989E-01
    -47.360  0.1478E-02  0.1470E-02  0.2020E-01  0.2020E-01
    -47.150  0.0000E+00  0.0000E+00  0.2020E-01  0.2020E-01
    -46.939  0.0000E+00  0.0000E+00  0.2020E-01  0.2020E-01
    -46.729  0.0000E+00  0.0000E+00  0.2020E-01  0.2020E-01
    -46.519  0.0000E+00  0.0000E+00  0.2020E-01  0.2020E-01
    -46.308  0.0000E+00  0.0000E+00  0.2020E-01  0.2020E-01
    -46.098  0.0000E+00  0.0000E+00  0.2020E-01  0.2020E-01
    -45.888  0.0000E+00  0.0000E+00  0.2020E-01  0.2020E-01
    -45.678  0.0000E+00  0.0000E+00  0.2020E-01  0.2020E-01
    -45.467  0.0000E+00  0.0000E+00  0.2020E-01  0.2020E-01
    -45.257  0.0000E+00  0.0000E+00  0.2020E-01  0.2020E-01
    -45.047  0.0000E+00  0.0000E+00  0.2020E-01  0.2020E-01
    -44.836  0.0000E+00  0.0000E+00  0.2020E-01  0.2020E-01
    -44.626  0.0000E+00  0.0000E+00  0.2020E-01  0.2020E-01
    -44.416  0.0000E+00  0.0000E+00  0.2020E-01  0.2020E-01
    -44.205  0.0000E+00  0.0000E+00  0.2020E-01  0.2020E-01
    -43.995  0.0000E+00  0.0000E+00  0.2020E-01  0.2020E-01
    -43.785  0.0000E+00  0.0000E+00  0.2020E-01  0.2020E-01
    -43.575  0.0000E+00  0.0000E+00  0.2020E-01  0.2020E-01
    -43.364  0.0000E+00  0.0000E+00  0.2020E-01  0.2020E-01
    -43.154  0.0000E+00  0.0000E+00  0.2020E-01  0.2020E-01
    -42.944  0.0000E+00  0.0000E+00  0.2020E-01  0.2020E-01
    -42.733  0.0000E+00  0.0000E+00  0.2020E-01  0.2020E-01
    -42.523  0.0000E+00  0.0000E+00  0.2020E-01  0.2020E-01
    -42.313  0.0000E+00  0.0000E+00  0.2020E-01  0.2020E-01
    -42.103  0.0000E+00  0.0000E+00  0.2020E-01  0.2020E-01
    -41.892  0.0000E+00  0.0000E+00  0.2020E-01  0.2020E-01
    -41.682  0.0000E+00  0.0000E+00  0.2020E-01  0.2020E-01
    -41.472  0.0000E+00  0.0000E+00  0.2020E-01  0.2020E-01
    -41.261  0.0000E+00  0.0000E+00  0.2020E-01  0.2020E-01
    -41.051  0.0000E+00  0.0000E+00  0.2020E-01  0.2020E-01
    -40.841  0.0000E+00  0.0000E+00  0.2020E-01  0.2020E-01
    -40.631  0.0000E+00  0.0000E+00  0.2020E-01  0.2020E-01
    -40.420  0.0000E+00  0.0000E+00  0.2020E-01  0.2020E-01
    -40.210  0.0000E+00  0.0000E+00  0.2020E-01  0.2020E-01
    -40.000  0.0000E+00  0.0000E+00  0.2020E-01  0.2020E-01
    -39.789  0.0000E+00  0.0000E+00  0.2020E-01  0.2020E-01
    -39.579  0.0000E+00  0.0000E+00  0.2020E-01  0.2020E-01
    -39.369  0.0000E+00  0.0000E+00  0.2020E-01  0.2020E-01
    -39.158  0.0000E+00  0.0000E+00  0.2020E-01  0.2020E-01
    -38.948  0.0000E+00  0.0000E+00  0.2020E-01  0.2020E-01
    -38.738  0.0000E+00  0.0000E+00  0.2020E-01  0.2020E-01
    -38.528  0.0000E+00  0.0000E+00  0.2020E-01  0.2020E-01
    -38.317  0.0000E+00  0.0000E+00  0.2020E-01  0.2020E-01
    -38.107  0.0000E+00  0.0000E+00  0.2020E-01  0.2020E-01
    -37.897  0.0000E+00  0.0000E+00  0.2020E-01  0.2020E-01
    -37.686  0.0000E+00  0.0000E+00  0.2020E-01  0.2020E-01
    -37.476  0.0000E+00  0.0000E+00  0.2020E-01  0.2020E-01
    -37.266  0.0000E+00  0.0000E+00  0.2020E-01  0.2020E-01
    -37.056  0.0000E+00  0.0000E+00  0.2020E-01  0.2020E-01
    -36.845  0.0000E+00  0.0000E+00  0.2020E-01  0.2020E-01
    -36.635  0.0000E+00  0.0000E+00  0.2020E-01  0.2020E-01
    -36.425  0.0000E+00  0.0000E+00  0.2020E-01  0.2020E-01
    -36.214  0.0000E+00  0.0000E+00  0.2020E-01  0.2020E-01
    -36.004  0.0000E+00  0.0000E+00  0.2020E-01  0.2020E-01
    -35.794  0.0000E+00  0.0000E+00  0.2020E-01  0.2020E-01
    -35.583  0.0000E+00  0.0000E+00  0.2020E-01  0.2020E-01
    -35.373  0.0000E+00  0.0000E+00  0.2020E-01  0.2020E-01
    -35.163  0.0000E+00  0.0000E+00  0.2020E-01  0.2020E-01
    -34.953  0.0000E+00  0.0000E+00  0.2020E-01  0.2020E-01
    -34.742  0.0000E+00  0.0000E+00  0.2020E-01  0.2020E-01
    -34.532  0.0000E+00  0.0000E+00  0.2020E-01  0.2020E-01
    -34.322  0.0000E+00  0.0000E+00  0.2020E-01  0.2020E-01
    -34.111  0.0000E+00  0.0000E+00  0.2020E-01  0.2020E-01
    -33.901  0.0000E+00  0.0000E+00  0.2020E-01  0.2020E-01
    -33.691  0.0000E+00  0.0000E+00  0.2020E-01  0.2020E-01
    -33.481  0.0000E+00  0.0000E+00  0.2020E-01  0.2020E-01
    -33.270  0.0000E+00  0.0000E+00  0.2020E-01  0.2020E-01
    -33.060  0.0000E+00  0.0000E+00  0.2020E-01  0.2020E-01
    -32.850  0.0000E+00  0.0000E+00  0.2020E-01  0.2020E-01
    -32.639  0.0000E+00  0.0000E+00  0.2020E-01  0.2020E-01
    -32.429  0.0000E+00  0.0000E+00  0.2020E-01  0.2020E-01
    -32.219  0.0000E+00  0.0000E+00  0.2020E-01  0.2020E-01
    -32.009  0.0000E+00  0.0000E+00  0.2020E-01  0.2020E-01
    -31.798  0.0000E+00  0.0000E+00  0.2020E-01  0.2020E-01
    -31.588  0.0000E+00  0.0000E+00  0.2020E-01  0.2020E-01
    -31.378  0.0000E+00  0.0000E+00  0.2020E-01  0.2020E-01
    -31.167  0.0000E+00  0.0000E+00  0.2020E-01  0.2020E-01
    -30.957  0.0000E+00  0.0000E+00  0.2020E-01  0.2020E-01
    -30.747  0.0000E+00  0.0000E+00  0.2020E-01  0.2020E-01
    -30.536  0.0000E+00  0.0000E+00  0.2020E-01  0.2020E-01
    -30.326  0.0000E+00  0.0000E+00  0.2020E-01  0.2020E-01
    -30.116  0.0000E+00  0.0000E+00  0.2020E-01  0.2020E-01
    -29.906  0.0000E+00  0.0000E+00  0.2020E-01  0.2020E-01
    -29.695  0.0000E+00  0.0000E+00  0.2020E-01  0.2020E-01
    -29.485  0.0000E+00  0.0000E+00  0.2020E-01  0.2020E-01
    -29.275  0.0000E+00  0.0000E+00  0.2020E-01  0.2020E-01
    -29.064  0.0000E+00  0.0000E+00  0.2020E-01  0.2020E-01
    -28.854  0.0000E+00  0.0000E+00  0.2020E-01  0.2020E-01
    -28.644  0.0000E+00  0.0000E+00  0.2020E-01  0.2020E-01
    -28.434  0.0000E+00  0.0000E+00  0.2020E-01  0.2020E-01
    -28.223  0.0000E+00  0.0000E+00  0.2020E-01  0.2020E-01
    -28.013  0.0000E+00  0.0000E+00  0.2020E-01  0.2020E-01
    -27.803  0.0000E+00  0.0000E+00  0.2020E-01  0.2020E-01
    -27.592  0.0000E+00  0.0000E+00  0.2020E-01  0.2020E-01
    -27.382  0.0000E+00  0.0000E+00  0.2020E-01  0.2020E-01
    -27.172  0.0000E+00  0.0000E+00  0.2020E-01  0.2020E-01
    -26.961  0.0000E+00  0.0000E+00  0.2020E-01  0.2020E-01
    -26.751  0.0000E+00  0.0000E+00  0.2020E-01  0.2020E-01
    -26.541  0.0000E+00  0.0000E+00  0.2020E-01  0.2020E-01
    -26.331  0.0000E+00  0.0000E+00  0.2020E-01  0.2020E-01
    -26.120  0.0000E+00  0.0000E+00  0.2020E-01  0.2020E-01
    -25.910  0.0000E+00  0.0000E+00  0.2020E-01  0.2020E-01
    -25.700  0.0000E+00  0.0000E+00  0.2020E-01  0.2020E-01
    -25.489  0.0000E+00  0.0000E+00  0.2020E-01  0.2020E-01
    -25.279  0.0000E+00  0.0000E+00  0.2020E-01  0.2020E-01
    -25.069  0.0000E+00  0.0000E+00  0.2020E-01  0.2020E-01
    -24.859  0.0000E+00  0.0000E+00  0.2020E-01  0.2020E-01
    -24.648  0.0000E+00  0.0000E+00  0.2020E-01  0.2020E-01
    -24.438  0.0000E+00  0.0000E+00  0.2020E-01  0.2020E-01
    -24.228  0.0000E+00  0.0000E+00  0.2020E-01  0.2020E-01
    -24.017  0.0000E+00  0.0000E+00  0.2020E-01  0.2020E-01
    -23.807  0.0000E+00  0.0000E+00  0.2020E-01  0.2020E-01
    -23.597  0.0000E+00  0.0000E+00  0.2020E-01  0.2020E-01
    -23.387  0.0000E+00  0.0000E+00  0.2020E-01  0.2020E-01
    -23.176  0.0000E+00  0.0000E+00  0.2020E-01  0.2020E-01
    -22.966  0.0000E+00  0.0000E+00  0.2020E-01  0.2020E-01
    -22.756  0.0000E+00  0.0000E+00  0.2020E-01  0.2020E-01
    -22.545  0.0000E+00  0.0000E+00  0.2020E-01  0.2020E-01
    -22.335  0.0000E+00  0.0000E+00  0.2020E-01  0.2020E-01
    -22.125  0.0000E+00  0.0000E+00  0.2020E-01  0.2020E-01
    -21.914  0.0000E+00  0.0000E+00  0.2020E-01  0.2020E-01
    -21.704  0.0000E+00  0.0000E+00  0.2020E-01  0.2020E-01
    -21.494  0.0000E+00  0.0000E+00  0.2020E-01  0.2020E-01
    -21.284  0.0000E+00  0.0000E+00  0.2020E-01  0.2020E-01
    -21.073  0.0000E+00  0.0000E+00  0.2020E-01  0.2020E-01
    -20.863  0.0000E+00  0.0000E+00  0.2020E-01  0.2020E-01
    -20.653  0.0000E+00  0.0000E+00  0.2020E-01  0.2020E-01
    -20.442  0.0000E+00  0.0000E+00  0.2020E-01  0.2020E-01
    -20.232  0.0000E+00  0.0000E+00  0.2020E-01  0.2020E-01
    -20.022  0.0000E+00  0.0000E+00  0.2020E-01  0.2020E-01
    -19.812  0.0000E+00  0.0000E+00  0.2020E-01  0.2020E-01
    -19.601  0.0000E+00  0.0000E+00  0.2020E-01  0.2020E-01
    -19.391  0.0000E+00  0.0000E+00  0.2020E-01  0.2020E-01
    -19.181  0.0000E+00  0.0000E+00  0.2020E-01  0.2020E-01
    -18.970  0.0000E+00  0.0000E+00  0.2020E-01  0.2020E-01
    -18.760  0.0000E+00  0.0000E+00  0.2020E-01  0.2020E-01
    -18.550  0.0000E+00  0.0000E+00  0.2020E-01  0.2020E-01
    -18.339  0.0000E+00  0.0000E+00  0.2020E-01  0.2020E-01
    -18.129  0.0000E+00  0.0000E+00  0.2020E-01  0.2020E-01
    -17.919  0.0000E+00  0.0000E+00  0.2020E-01  0.2020E-01
    -17.709  0.0000E+00  0.0000E+00  0.2020E-01  0.2020E-01
    -17.498  0.0000E+00  0.0000E+00  0.2020E-01  0.2020E-01
    -17.288  0.0000E+00  0.0000E+00  0.2020E-01  0.2020E-01
    -17.078  0.0000E+00  0.0000E+00  0.2020E-01  0.2020E-01
    -16.867  0.0000E+00  0.0000E+00  0.2020E-01  0.2020E-01
    -16.657  0.0000E+00  0.0000E+00  0.2020E-01  0.2020E-01
    -16.447  0.0000E+00  0.0000E+00  0.2020E-01  0.2020E-01
    -16.237  0.0000E+00  0.0000E+00  0.2020E-01  0.2020E-01
    -16.026  0.0000E+00  0.0000E+00  0.2020E-01  0.2020E-01
    -15.816  0.0000E+00  0.0000E+00  0.2020E-01  0.2020E-01
    -15.606  0.0000E+00  0.0000E+00  0.2020E-01  0.2020E-01
    -15.395  0.0000E+00  0.0000E+00  0.2020E-01  0.2020E-01
    -15.185  0.0000E+00  0.0000E+00  0.2020E-01  0.2020E-01
    -14.975  0.0000E+00  0.0000E+00  0.2020E-01  0.2020E-01
    -14.765  0.0000E+00  0.0000E+00  0.2020E-01  0.2020E-01
    -14.554  0.0000E+00  0.0000E+00  0.2020E-01  0.2020E-01
    -14.344  0.0000E+00  0.0000E+00  0.2020E-01  0.2020E-01
    -14.134  0.3837E-05  0.3839E-05  0.2020E-01  0.2020E-01
    -13.923  0.6744E-01  0.6744E-01  0.3439E-01  0.3439E-01
    -13.713  0.2862E-01  0.2862E-01  0.4040E-01  0.4040E-01
    -13.503  0.2986E-09  0.2984E-09  0.4040E-01  0.4040E-01
    -13.292  0.0000E+00  0.0000E+00  0.4040E-01  0.4040E-01
    -13.082  0.0000E+00  0.0000E+00  0.4040E-01  0.4040E-01
    -12.872  0.0000E+00  0.0000E+00  0.4040E-01  0.4040E-01
    -12.662  0.0000E+00  0.0000E+00  0.4040E-01  0.4040E-01
    -12.451  0.0000E+00  0.0000E+00  0.4040E-01  0.4040E-01
    -12.241  0.0000E+00  0.0000E+00  0.4040E-01  0.4040E-01
    -12.031  0.0000E+00  0.0000E+00  0.4040E-01  0.4040E-01
    -11.820  0.1114E-09  0.1115E-09  0.4040E-01  0.4040E-01
    -11.610  0.1539E-01  0.1539E-01  0.4364E-01  0.4364E-01
    -11.400  0.6423E-01  0.6423E-01  0.5715E-01  0.5715E-01
    -11.190  0.1645E-01  0.1645E-01  0.6061E-01  0.6061E-01
    -10.979  0.3219E-13  0.3220E-13  0.6061E-01  0.6061E-01
    -10.769  0.2004E-02  0.2004E-02  0.6103E-01  0.6103E-01
    -10.559  0.8160E-01  0.8160E-01  0.7819E-01  0.7819E-01
    -10.348  0.1246E-01  0.1246E-01  0.8081E-01  0.8081E-01
    -10.138  0.4444E-09  0.4443E-09  0.8081E-01  0.8081E-01
     -9.928  0.1364E-08  0.1364E-08  0.8081E-01  0.8081E-01
     -9.717  0.1686E-01  0.1686E-01  0.8435E-01  0.8435E-01
     -9.507  0.3074E-01  0.3074E-01  0.9082E-01  0.9082E-01
     -9.297  0.2936E-01  0.2936E-01  0.9699E-01  0.9699E-01
     -9.087  0.1910E-01  0.1910E-01  0.1010E+00  0.1010E+00
     -8.876  0.4733E-08  0.4732E-08  0.1010E+00  0.1010E+00
     -8.666  0.0000E+00  0.0000E+00  0.1010E+00  0.1010E+00
     -8.456  0.2202E-09  0.2203E-09  0.1010E+00  0.1010E+00
     -8.245  0.1328E-01  0.1327E-01  0.1038E+00  0.1038E+00
     -8.035  0.8218E-01  0.8218E-01  0.1211E+00  0.1211E+00
     -7.825  0.6078E-03  0.6079E-03  0.1212E+00  0.1212E+00
     -7.615  0.4407E-04  0.4407E-04  0.1212E+00  0.1212E+00
     -7.404  0.2483E-01  0.2483E-01  0.1264E+00  0.1264E+00
     -7.194  0.5507E-01  0.5507E-01  0.1380E+00  0.1380E+00
     -6.984  0.1920E-01  0.1920E-01  0.1421E+00  0.1421E+00
     -6.773  0.5564E-01  0.5564E-01  0.1538E+00  0.1538E+00
     -6.563  0.8884E-01  0.8884E-01  0.1724E+00  0.1724E+00
     -6.353  0.6454E-01  0.6453E-01  0.1860E+00  0.1860E+00
     -6.143  0.4721E-01  0.4721E-01  0.1959E+00  0.1959E+00
     -5.932  0.2858E-01  0.2858E-01  0.2020E+00  0.2020E+00
     -5.722  0.3165E-03  0.3169E-03  0.2020E+00  0.2020E+00
     -5.512  0.8771E-03  0.8761E-03  0.2022E+00  0.2022E+00
     -5.301  0.2975E-01  0.2975E-01  0.2085E+00  0.2085E+00
     -5.091  0.4997E-01  0.4997E-01  0.2190E+00  0.2190E+00
     -4.881  0.5069E-01  0.5069E-01  0.2296E+00  0.2296E+00
     -4.670  0.5835E-01  0.5835E-01  0.2419E+00  0.2419E+00
     -4.460  0.8062E-01  0.8061E-01  0.2589E+00  0.2589E+00
     -4.250  0.7798E-01  0.7798E-01  0.2752E+00  0.2752E+00
     -4.040  0.8536E-01  0.8536E-01  0.2932E+00  0.2932E+00
     -3.829  0.4922E-01  0.4923E-01  0.3036E+00  0.3036E+00
     -3.619  0.6717E-01  0.6717E-01  0.3177E+00  0.3177E+00
     -3.409  0.3694E-01  0.3693E-01  0.3254E+00  0.3254E+00
     -3.198  0.1076E+00  0.1076E+00  0.3481E+00  0.3481E+00
     -2.988  0.1131E+00  0.1131E+00  0.3719E+00  0.3719E+00
     -2.778  0.1103E+00  0.1103E+00  0.3951E+00  0.3951E+00
     -2.568  0.8778E-01  0.8778E-01  0.4135E+00  0.4135E+00
     -2.357  0.4661E-01  0.4661E-01  0.4233E+00  0.4233E+00
     -2.147  0.4358E-02  0.4361E-02  0.4242E+00  0.4242E+00
     -1.937  0.0000E+00  0.0000E+00  0.4242E+00  0.4242E+00
     -1.726  0.2266E-06  0.2270E-06  0.4242E+00  0.4242E+00
     -1.516  0.2112E-01  0.2113E-01  0.4287E+00  0.4287E+00
     -1.306  0.6168E-01  0.6168E-01  0.4417E+00  0.4417E+00
     -1.095  0.1326E-01  0.1326E-01  0.4444E+00  0.4444E+00
     -0.885  0.6840E-09  0.6835E-09  0.4444E+00  0.4444E+00
     -0.675  0.0000E+00  0.0000E+00  0.4444E+00  0.4444E+00
     -0.465  0.0000E+00  0.0000E+00  0.4444E+00  0.4444E+00
     -0.254  0.0000E+00  0.0000E+00  0.4444E+00  0.4444E+00
     -0.044  0.0000E+00  0.0000E+00  0.4444E+00  0.4444E+00
      0.166  0.0000E+00  0.0000E+00  0.4444E+00  0.4444E+00
      0.377  0.0000E+00  0.0000E+00  0.4444E+00  0.4444E+00
      0.587  0.0000E+00  0.0000E+00  0.4444E+00  0.4444E+00
      0.797  0.0000E+00  0.0000E+00  0.4444E+00  0.4444E+00
      1.007  0.0000E+00  0.0000E+00  0.4444E+00  0.4444E+00
      1.218  0.0000E+00  0.0000E+00  0.4444E+00  0.4444E+00
      1.428  0.0000E+00  0.0000E+00  0.4444E+00  0.4444E+00
      1.638  0.0000E+00  0.0000E+00  0.4444E+00  0.4444E+00
      1.849  0.0000E+00  0.0000E+00  0.4444E+00  0.4444E+00
      2.059  0.0000E+00  0.0000E+00  0.4444E+00  0.4444E+00
      2.269  0.6328E-09  0.4751E-09  0.4444E+00  0.4444E+00
      2.479  0.7114E-02  0.6880E-02  0.4459E+00  0.4459E+00
      2.690  0.3722E-01  0.3712E-01  0.4538E+00  0.4537E+00
      2.900  0.4314E-01  0.4336E-01  0.4628E+00  0.4628E+00
      3.110  0.8598E-02  0.8703E-02  0.4646E+00  0.4646E+00
      3.321  0.4837E-04  0.3148E-04  0.4647E+00  0.4647E+00
      3.531  0.3493E-01  0.3294E-01  0.4720E+00  0.4716E+00
      3.741  0.4239E-01  0.4178E-01  0.4809E+00  0.4804E+00
      3.952  0.5774E-01  0.5870E-01  0.4931E+00  0.4927E+00
      4.162  0.2240E-01  0.2280E-01  0.4978E+00  0.4975E+00
      4.372  0.3730E-01  0.3836E-01  0.5056E+00  0.5056E+00
      4.582  0.4453E-01  0.4448E-01  0.5150E+00  0.5149E+00
      4.793  0.6079E-01  0.6050E-01  0.5278E+00  0.5276E+00
      5.003  0.6257E-01  0.6274E-01  0.5409E+00  0.5408E+00
      5.213  0.5012E-01  0.5001E-01  0.5515E+00  0.5514E+00
      5.424  0.5790E-01  0.5802E-01  0.5636E+00  0.5636E+00
      5.634  0.5187E-01  0.5179E-01  0.5745E+00  0.5745E+00
      5.844  0.6331E-01  0.6350E-01  0.5879E+00  0.5878E+00
      6.054  0.6740E-01  0.6786E-01  0.6020E+00  0.6021E+00
      6.265  0.6971E-01  0.6943E-01  0.6167E+00  0.6167E+00
      6.475  0.7234E-01  0.7236E-01  0.6319E+00  0.6319E+00
      6.685  0.8321E-01  0.8302E-01  0.6494E+00  0.6494E+00
      6.896  0.5625E-01  0.5633E-01  0.6612E+00  0.6612E+00
      7.106  0.6729E-01  0.6731E-01  0.6754E+00  0.6754E+00
      7.316  0.7822E-01  0.7816E-01  0.6918E+00  0.6918E+00
      7.527  0.6213E-01  0.6211E-01  0.7049E+00  0.7049E+00
      7.737  0.7711E-01  0.7722E-01  0.7211E+00  0.7211E+00
      7.947  0.6640E-01  0.6623E-01  0.7351E+00  0.7350E+00
      8.157  0.8031E-01  0.8054E-01  0.7520E+00  0.7520E+00
      8.368  0.6751E-01  0.6731E-01  0.7662E+00  0.7661E+00
      8.578  0.6390E-01  0.6378E-01  0.7796E+00  0.7795E+00
      8.788  0.6862E-01  0.6871E-01  0.7940E+00  0.7940E+00
      8.999  0.7010E-01  0.7018E-01  0.8088E+00  0.8087E+00
      9.209  0.7551E-01  0.7547E-01  0.8246E+00  0.8246E+00
      9.419  0.6375E-01  0.6335E-01  0.8381E+00  0.8379E+00
      9.629  0.4536E-01  0.4603E-01  0.8476E+00  0.8476E+00
      9.840  0.4229E-02  0.4200E-02  0.8485E+00  0.8485E+00
     10.050  0.2307E-06  0.1756E-06  0.8485E+00  0.8485E+00
     10.260  0.0000E+00  0.0000E+00  0.8485E+00  0.8485E+00
     10.471  0.0000E+00  0.0000E+00  0.8485E+00  0.8485E+00
     10.681  0.0000E+00  0.0000E+00  0.8485E+00  0.8485E+00
     10.891  0.0000E+00  0.0000E+00  0.8485E+00  0.8485E+00
     11.101  0.0000E+00  0.0000E+00  0.8485E+00  0.8485E+00
     11.312  0.0000E+00  0.0000E+00  0.8485E+00  0.8485E+00
     11.522  0.0000E+00  0.0000E+00  0.8485E+00  0.8485E+00
     11.732  0.0000E+00  0.0000E+00  0.8485E+00  0.8485E+00
     11.943  0.0000E+00  0.0000E+00  0.8485E+00  0.8485E+00
     12.153  0.0000E+00  0.0000E+00  0.8485E+00  0.8485E+00
     12.363  0.0000E+00  0.0000E+00  0.8485E+00  0.8485E+00
     12.574  0.0000E+00  0.0000E+00  0.8485E+00  0.8485E+00
     12.57353201    -50.51427708  301     -1.04292011      1.00000000
    -50.514  0.0000E+00  0.0000E+00  0.0000E+00  0.0000E+00  0.0000E+00  0.0000E+00  0.0000E+00  0.0000E+00  0.0000E+00  0.0000E+00  0.0000E+00  0.0000E+00  0.0000E+00  0.0000E+00  0.0000E+00  0.0000E+00  0.0000E+00  0.0000E+00
    -50.304  0.0000E+00  0.0000E+00  0.0000E+00  0.0000E+00  0.0000E+00  0.0000E+00  0.0000E+00  0.0000E+00  0.0000E+00  0.0000E+00  0.0000E+00  0.0000E+00  0.0000E+00  0.0000E+00  0.0000E+00  0.0000E+00  0.0000E+00  0.0000E+00
    -50.094  0.0000E+00  0.0000E+00  0.0000E+00  0.0000E+00  0.0000E+00  0.0000E+00  0.0000E+00  0.0000E+00  0.0000E+00  0.0000E+00  0.0000E+00  0.0000E+00  0.0000E+00  0.0000E+00  0.0000E+00  0.0000E+00  0.0000E+00  0.0000E+00
    -49.883  0.0000E+00  0.0000E+00  0.0000E+00  0.0000E+00  0.0000E+00  0.0000E+00  0.0000E+00  0.0000E+00  0.0000E+00  0.0000E+00  0.0000E+00  0.0000E+00  0.0000E+00  0.0000E+00  0.0000E+00  0.0000E+00  0.0000E+00  0.0000E+00
    -49.673  0.0000E+00  0.0000E+00  0.0000E+00  0.0000E+00  0.0000E+00  0.0000E+00  0.0000E+00  0.0000E+00  0.0000E+00  0.0000E+00  0.0000E+00  0.0000E+00  0.0000E+00  0.0000E+00  0.0000E+00  0.0000E+00  0.0000E+00  0.0000E+00
    -49.463  0.0000E+00  0.0000E+00  0.0000E+00  0.0000E+00  0.0000E+00  0.0000E+00  0.0000E+00  0.0000E+00  0.0000E+00  0.0000E+00  0.0000E+00  0.0000E+00  0.0000E+00  0.0000E+00  0.0000E+00  0.0000E+00  0.0000E+00  0.0000E+00
    -49.253  0.0000E+00  0.0000E+00  0.0000E+00  0.0000E+00  0.0000E+00  0.0000E+00  0.0000E+00  0.0000E+00  0.0000E+00  0.0000E+00  0.0000E+00  0.0000E+00  0.0000E+00  0.0000E+00  0.0000E+00  0.0000E+00  0.0000E+00  0.0000E+00
    -49.042  0.0000E+00  0.0000E+00  0.0000E+00  0.0000E+00  0.0000E+00  0.0000E+00  0.0000E+00  0.0000E+00  0.0000E+00  0.0000E+00  0.0000E+00  0.0000E+00  0.0000E+00  0.0000E+00  0.0000E+00  0.0000E+00  0.0000E+00  0.0000E+00
    -48.832  0.0000E+00  0.0000E+00  0.0000E+00  0.0000E+00  0.0000E+00  0.0000E+00  0.0000E+00  0.0000E+00  0.0000E+00  0.0000E+00  0.0000E+00  0.0000E+00  0.0000E+00  0.0000E+00  0.0000E+00  0.0000E+00  0.0000E+00  0.0000E+00
    -48.622  0.0000E+00  0.0000E+00  0.0000E+00  0.0000E+00  0.0000E+00  0.0000E+00  0.0000E+00  0.0000E+00  0.0000E+00  0.0000E+00  0.0000E+00  0.0000E+00  0.0000E+00  0.0000E+00  0.0000E+00  0.0000E+00  0.0000E+00  0.0000E+00
    -48.411  0.0000E+00  0.0000E+00  0.0000E+00  0.0000E+00  0.0000E+00  0.0000E+00  0.0000E+00  0.0000E+00  0.0000E+00  0.0000E+00  0.0000E+00  0.0000E+00  0.0000E+00  0.0000E+00  0.0000E+00  0.0000E+00  0.0000E+00  0.0000E+00
    -48.201  0.0000E+00  0.0000E+00  0.0000E+00  0.0000E+00  0.0000E+00  0.0000E+00  0.0000E+00  0.0000E+00  0.0000E+00  0.0000E+00  0.0000E+00  0.0000E+00  0.0000E+00  0.0000E+00  0.0000E+00  0.0000E+00  0.0000E+00  0.0000E+00
    -47.991  0.0000E+00  0.0000E+00  0.0000E+00  0.0000E+00  0.0000E+00  0.0000E+00  0.0000E+00  0.0000E+00  0.0000E+00  0.0000E+00  0.0000E+00  0.0000E+00  0.0000E+00  0.0000E+00  0.0000E+00  0.0000E+00  0.0000E+00  0.0000E+00
    -47.780  0.3576E-03  0.3607E-03  0.1033E-07  0.1041E-07  0.3557E-10  0.3575E-10  0.3450E-08  0.3481E-08  0.0000E+00  0.0000E+00  0.0000E+00  0.0000E+00  0.0000E+00  0.0000E+00  0.0000E+00  0.0000E+00  0.0000E+00  0.0000E+00
    -47.570  0.4634E+01  0.4635E+01  0.1338E-03  0.1338E-03  0.4610E-06  0.4593E-06  0.4472E-04  0.4473E-04  0.0000E+00  0.0000E+00  0.0000E+00  0.0000E+00  0.0000E+00  0.0000E+00  0.0000E+00  0.0000E+00  0.0000E+00  0.0000E+00
    -47.360  0.7241E-01  0.7201E-01  0.2091E-05  0.2079E-05  0.7202E-08  0.7136E-08  0.6987E-06  0.6949E-06  0.0000E+00  0.0000E+00  0.0000E+00  0.0000E+00  0.0000E+00  0.0000E+00  0.0000E+00  0.0000E+00  0.0000E+00  0.0000E+00
    -47.150  0.0000E+00  0.0000E+00  0.0000E+00  0.0000E+00  0.0000E+00  0.0000E+00  0.0000E+00  0.0000E+00  0.0000E+00  0.0000E+00  0.0000E+00  0.0000E+00  0.0000E+00  0.0000E+00  0.0000E+00  0.0000E+00  0.0000E+00  0.0000E+00
    -46.939  0.0000E+00  0.0000E+00  0.0000E+00  0.0000E+00  0.0000E+00  0.0000E+00  0.0000E+00  0.0000E+00  0.0000E+00  0.0000E+00  0.0000E+00  0.0000E+00  0.0000E+00  0.0000E+00  0.0000E+00  0.0000E+00  0.0000E+00  0.0000E+00
    -46.729  0.0000E+00  0.0000E+00  0.0000E+00  0.0000E+00  0.0000E+00  0.0000E+00  0.0000E+00  0.0000E+00  0.0000E+00  0.0000E+00  0.0000E+00  0.0000E+00  0.0000E+00  0.0000E+00  0.0000E+00  0.0000E+00  0.0000E+00  0.0000E+00
    -46.519  0.0000E+00  0.0000E+00  0.0000E+00  0.0000E+00  0.0000E+00  0.0000E+00  0.0000E+00  0.0000E+00  0.0000E+00  0.0000E+00  0.0000E+00  0.0000E+00  0.0000E+00  0.0000E+00  0.0000E+00  0.0000E+00  0.0000E+00  0.0000E+00
    -46.308  0.0000E+00  0.0000E+00  0.0000E+00  0.0000E+00  0.0000E+00  0.0000E+00  0.0000E+00  0.0000E+00  0.0000E+00  0.0000E+00  0.0000E+00  0.0000E+00  0.0000E+00  0.0000E+00  0.0000E+00  0.0000E+00  0.0000E+00  0.0000E+00
    -46.098  0.0000E+00  0.0000E+00  0.0000E+00  0.0000E+00  0.0000E+00  0.0000E+00  0.0000E+00  0.0000E+00  0.0000E+00  0.0000E+00  0.0000E+00  0.0000E+00  0.0000E+00  0.0000E+00  0.0000E+00  0.0000E+00  0.0000E+00  0.0000E+00
    -45.888  0.0000E+00  0.0000E+00  0.0000E+00  0.0000E+00  0.0000E+00  0.0000E+00  0.0000E+00  0.0000E+00  0.0000E+00  0.0000E+00  0.0000E+00  0.0000E+00  0.0000E+00  0.0000E+00  0.0000E+00  0.0000E+00  0.0000E+00  0.0000E+00
    -45.678  0.0000E+00  0.0000E+00  0.0000E+00  0.0000E+00  0.0000E+00  0.0000E+00  0.0000E+00  0.0000E+00  0.0000E+00  0.0000E+00  0.0000E+00  0.0000E+00  0.0000E+00  0.0000E+00  0.0000E+00  0.0000E+00  0.0000E+00  0.0000E+00
    -45.467  0.0000E+00  0.0000E+00  0.0000E+00  0.0000E+00  0.0000E+00  0.0000E+00  0.0000E+00  0.0000E+00  0.0000E+00  0.0000E+00  0.0000E+00  0.0000E+00  0.0000E+00  0.0000E+00  0.0000E+00  0.0000E+00  0.0000E+00  0.0000E+00
    -45.257  0.0000E+00  0.0000E+00  0.0000E+00  0.0000E+00  0.0000E+00  0.0000E+00  0.0000E+00  0.0000E+00  0.0000E+00  0.0000E+00  0.0000E+00  0.0000E+00  0.0000E+00  0.0000E+00  0.0000E+00  0.0000E+00  0.0000E+00  0.0000E+00
    -45.047  0.0000E+00  0.0000E+00  0.0000E+00  0.0000E+00  0.0000E+00  0.0000E+00  0.0000E+00  0.0000E+00  0.0000E+00  0.0000E+00  0.0000E+00  0.0000E+00  0.0000E+00  0.0000E+00  0.0000E+00  0.0000E+00  0.0000E+00  0.0000E+00
    -44.836  0.0000E+00  0.0000E+00  0.0000E+00  0.0000E+00  0.0000E+00  0.0000E+00  0.0000E+00  0.0000E+00  0.0000E+00  0.0000E+00  0.0000E+00  0.0000E+00  0.0000E+00  0.0000E+00  0.0000E+00  0.0000E+00  0.0000E+00  0.0000E+00
    -44.626  0.0000E+00  0.0000E+00  0.0000E+00  0.0000E+00  0.0000E+00  0.0000E+00  0.0000E+00  0.0000E+00  0.0000E+00  0.0000E+00  0.0000E+00  0.0000E+00  0.0000E+00  0.0000E+00  0.0000E+00  0.0000E+00  0.0000E+00  0.0000E+00
    -44.416  0.0000E+00  0.0000E+00  0.0000E+00  0.0000E+00  0.0000E+00  0.0000E+00  0.0000E+00  0.0000E+00  0.0000E+00  0.0000E+00  0.0000E+00  0.0000E+00  0.0000E+00  0.0000E+00  0.0000E+00  0.0000E+00  0.0000E+00  0.0000E+00
    -44.205  0.0000E+00  0.0000E+00  0.0000E+00  0.0000E+00  0.0000E+00  0.0000E+00  0.0000E+00  0.0000E+00  0.0000E+00  0.0000E+00  0.0000E+00  0.0000E+00  0.0000E+00  0.0000E+00  0.0000E+00  0.0000E+00  0.0000E+00  0.0000E+00
    -43.995  0.0000E+00  0.0000E+00  0.0000E+00  0.0000E+00  0.0000E+00  0.0000E+00  0.0000E+00  0.0000E+00  0.0000E+00  0.0000E+00  0.0000E+00  0.0000E+00  0.0000E+00  0.0000E+00  0.0000E+00  0.0000E+00  0.0000E+00  0.0000E+00
    -43.785  0.0000E+00  0.0000E+00  0.0000E+00  0.0000E+00  0.0000E+00  0.0000E+00  0.0000E+00  0.0000E+00  0.0000E+00  0.0000E+00  0.0000E+00  0.0000E+00  0.0000E+00  0.0000E+00  0.0000E+00  0.0000E+00  0.0000E+00  0.0000E+00
    -43.575  0.0000E+00  0.0000E+00  0.0000E+00  0.0000E+00  0.0000E+00  0.0000E+00  0.0000E+00  0.0000E+00  0.0000E+00  0.0000E+00  0.0000E+00  0.0000E+00  0.0000E+00  0.0000E+00  0.0000E+00  0.0000E+00  0.0000E+00  0.0000E+00
    -43.364  0.0000E+00  0.0000E+00  0.0000E+00  0.0000E+00  0.0000E+00  0.0000E+00  0.0000E+00  0.0000E+00  0.0000E+00  0.0000E+00  0.0000E+00  0.0000E+00  0.0000E+00  0.0000E+00  0.0000E+00  0.0000E+00  0.0000E+00  0.0000E+00
    -43.154  0.0000E+00  0.0000E+00  0.0000E+00  0.0000E+00  0.0000E+00  0.0000E+00  0.0000E+00  0.0000E+00  0.0000E+00  0.0000E+00  0.0000E+00  0.0000E+00  0.0000E+00  0.0000E+00  0.0000E+00  0.0000E+00  0.0000E+00  0.0000E+00
    -42.944  0.0000E+00  0.0000E+00  0.0000E+00  0.0000E+00  0.0000E+00  0.0000E+00  0.0000E+00  0.0000E+00  0.0000E+00  0.0000E+00  0.0000E+00  0.0000E+00  0.0000E+00  0.0000E+00  0.0000E+00  0.0000E+00  0.0000E+00  0.0000E+00
    -42.733  0.0000E+00  0.0000E+00  0.0000E+00  0.0000E+00  0.0000E+00  0.0000E+00  0.0000E+00  0.0000E+00  0.0000E+00  0.0000E+00  0.0000E+00  0.0000E+00  0.0000E+00  0.0000E+00  0.0000E+00  0.0000E+00  0.0000E+00  0.0000E+00
    -42.523  0.0000E+00  0.0000E+00  0.0000E+00  0.0000E+00  0.0000E+00  0.0000E+00  0.0000E+00  0.0000E+00  0.0000E+00  0.0000E+00  0.0000E+00  0.0000E+00  0.0000E+00  0.0000E+00  0.0000E+00  0.0000E+00  0.0000E+00  0.0000E+00
    -42.313  0.0000E+00  0.0000E+00  0.0000E+00  0.0000E+00  0.0000E+00  0.0000E+00  0.0000E+00  0.0000E+00  0.0000E+00  0.0000E+00  0.0000E+00  0.0000E+00  0.0000E+00  0.0000E+00  0.0000E+00  0.0000E+00  0.0000E+00  0.0000E+00
    -42.103  0.0000E+00  0.0000E+00  0.0000E+00  0.0000E+00  0.0000E+00  0.0000E+00  0.0000E+00  0.0000E+00  0.0000E+00  0.0000E+00  0.0000E+00  0.0000E+00  0.0000E+00  0.0000E+00  0.0000E+00  0.0000E+00  0.0000E+00  0.0000E+00
    -41.892  0.0000E+00  0.0000E+00  0.0000E+00  0.0000E+00  0.0000E+00  0.0000E+00  0.0000E+00  0.0000E+00  0.0000E+00  0.0000E+00  0.0000E+00  0.0000E+00  0.0000E+00  0.0000E+00  0.0000E+00  0.0000E+00  0.0000E+00  0.0000E+00
    -41.682  0.0000E+00  0.0000E+00  0.0000E+00  0.0000E+00  0.0000E+00  0.0000E+00  0.0000E+00  0.0000E+00  0.0000E+00  0.0000E+00  0.0000E+00  0.0000E+00  0.0000E+00  0.0000E+00  0.0000E+00  0.0000E+00  0.0000E+00  0.0000E+00
    -41.472  0.0000E+00  0.0000E+00  0.0000E+00  0.0000E+00  0.0000E+00  0.0000E+00  0.0000E+00  0.0000E+00  0.0000E+00  0.0000E+00  0.0000E+00  0.0000E+00  0.0000E+00  0.0000E+00  0.0000E+00  0.0000E+00  0.0000E+00  0.0000E+00
    -41.261  0.0000E+00  0.0000E+00  0.0000E+00  0.0000E+00  0.0000E+00  0.0000E+00  0.0000E+00  0.0000E+00  0.0000E+00  0.0000E+00  0.0000E+00  0.0000E+00  0.0000E+00  0.0000E+00  0.0000E+00  0.0000E+00  0.0000E+00  0.0000E+00
    -41.051  0.0000E+00  0.0000E+00  0.0000E+00  0.0000E+00  0.0000E+00  0.0000E+00  0.0000E+00  0.0000E+00  0.0000E+00  0.0000E+00  0.0000E+00  0.0000E+00  0.0000E+00  0.0000E+00  0.0000E+00  0.0000E+00  0.0000E+00  0.0000E+00
    -40.841  0.0000E+00  0.0000E+00  0.0000E+00  0.0000E+00  0.0000E+00  0.0000E+00  0.0000E+00  0.0000E+00  0.0000E+00  0.0000E+00  0.0000E+00  0.0000E+00  0.0000E+00  0.0000E+00  0.0000E+00  0.0000E+00  0.0000E+00  0.0000E+00
    -40.631  0.0000E+00  0.0000E+00  0.0000E+00  0.0000E+00  0.0000E+00  0.0000E+00  0.0000E+00  0.0000E+00  0.0000E+00  0.0000E+00  0.0000E+00  0.0000E+00  0.0000E+00  0.0000E+00  0.0000E+00  0.0000E+00  0.0000E+00  0.0000E+00
    -40.420  0.0000E+00  0.0000E+00  0.0000E+00  0.0000E+00  0.0000E+00  0.0000E+00  0.0000E+00  0.0000E+00  0.0000E+00  0.0000E+00  0.0000E+00  0.0000E+00  0.0000E+00  0.0000E+00  0.0000E+00  0.0000E+00  0.0000E+00  0.0000E+00
    -40.210  0.0000E+00  0.0000E+00  0.0000E+00  0.0000E+00  0.0000E+00  0.0000E+00  0.0000E+00  0.0000E+00  0.0000E+00  0.0000E+00  0.0000E+00  0.0000E+00  0.0000E+00  0.0000E+00  0.0000E+00  0.0000E+00  0.0000E+00  0.0000E+00
    -40.000  0.0000E+00  0.0000E+00  0.0000E+00  0.0000E+00  0.0000E+00  0.0000E+00  0.0000E+00  0.0000E+00  0.0000E+00  0.0000E+00  0.0000E+00  0.0000E+00  0.0000E+00  0.0000E+00  0.0000E+00  0.0000E+00  0.0000E+00  0.0000E+00