       N       E                     dE             d eps       ncg     rms          rms(c)
DAV:   1     0.289317569996E+03    0.28932E+03   -0.34399E+04  5376   0.886E+02
DAV:   2    -0.193892228536E+03   -0.48321E+03   -0.45613E+03  6644   0.193E+02
DAV:   3    -0.232031627191E+03   -0.38139E+02   -0.37838E+02  7508   0.543E+01
DAV:   4    -0.233623846487E+03   -0.15922E+01   -0.15818E+01  7880   0.837E+00
DAV:   5    -0.234012881995E+03   -0.38904E+00   -0.38895E+00  8848   0.186E+00    0.301E+01
RMM:   6    -0.204061812661E+03    0.29951E+02   -0.47719E+01  5376   0.156E+01    0.159E+01
RMM:   7    -0.222351687995E+03   -0.18290E+02   -0.48032E+01  5385   0.126E+01    0.779E+00
RMM:   8    -0.223144906158E+03   -0.79322E+00   -0.41469E+00  5720   0.379E+00    0.340E+00
RMM:   9    -0.223186235520E+03   -0.41329E-01   -0.81765E-01  5592   0.195E+00    0.142E+00
RMM:  10    -0.223211545552E+03   -0.25310E-01   -0.17767E-01  6009   0.105E+00    0.516E-01
RMM:  11    -0.223212758768E+03   -0.12132E-02   -0.32676E-02  5880   0.440E-01    0.358E-01
RMM:  12    -0.223223441604E+03   -0.10683E-01   -0.25314E-02  5372   0.405E-01    0.145E-01
RMM:  13    -0.223224635568E+03   -0.11940E-02   -0.32679E-03  4222   0.188E-01
   1 F= -.22322464E+03 E0= -.22322464E+03  d E =-.223225E+03  mag=    -0.0013
       N       E                     dE             d eps       ncg     rms          rms(c)
DAV:   1    -0.223263087628E+03   -0.39646E-01   -0.99433E-01  6416   0.277E+00    0.427E-01
RMM:   2    -0.223259725911E+03    0.33617E-02   -0.26225E-02  5699   0.382E-01    0.224E-01
RMM:   3    -0.223258386094E+03    0.13398E-02   -0.53153E-03  4365   0.162E-01
   2 F= -.22325839E+03 E0= -.22325839E+03  d E =-.337505E-01  mag=    -0.0001
       N       E                     dE             d eps       ncg     rms          rms(c)
DAV:   1    -0.223295075949E+03   -0.35350E-01   -0.26525E+00  6024   0.455E+00    0.735E-01
RMM:   2    -0.223284077275E+03    0.10999E-01   -0.66070E-02  5858   0.618E-01    0.389E-01
RMM:   3    -0.223280304533E+03    0.37727E-02   -0.19171E-02  5595   0.263E-01    0.101E-01
RMM:   4    -0.223279745003E+03    0.55953E-03   -0.91690E-04  3967   0.951E-02
   3 F= -.22327975E+03 E0= -.22327975E+03  d E =-.551094E-01  mag=     0.0000
       N       E                     dE             d eps       ncg     rms          rms(c)
DAV:   1    -0.223294710852E+03   -0.14406E-01   -0.22470E-01  6008   0.131E+00    0.167E-01
RMM:   2    -0.223293923396E+03    0.78746E-03   -0.53867E-03  4075   0.217E-01
   4 F= -.22329392E+03 E0= -.22329392E+03  d E =-.141784E-01  mag=     0.0000
       N       E                     dE             d eps       ncg     rms          rms(c)
DAV:   1    -0.223338576063E+03   -0.43865E-01   -0.19998E+00  5520   0.392E+00    0.504E-01
RMM:   2    -0.223333545923E+03    0.50301E-02   -0.55682E-02  5852   0.601E-01    0.263E-01
RMM:   3    -0.223331423202E+03    0.21227E-02   -0.11748E-02  5207   0.225E-01
   5 F= -.22333142E+03 E0= -.22333142E+03  d E =-.516782E-01  mag=     0.0000
       N       E                     dE             d eps       ncg     rms          rms(c)
DAV:   1    -0.223412533722E+03   -0.78988E-01   -0.81199E+00  5376   0.792E+00    0.101E+00
RMM:   2    -0.223394226422E+03    0.18307E-01   -0.23584E-01  5823   0.125E+00    0.525E-01
RMM:   3    -0.223384542005E+03    0.96844E-02   -0.47695E-02  6104   0.435E-01    0.140E-01
RMM:   4    -0.223383371696E+03    0.11703E-02   -0.20045E-03  3991   0.145E-01
   6 F= -.22338337E+03 E0= -.22338337E+03  d E =-.103627E+00  mag=    -0.0000
       N       E                     dE             d eps       ncg     rms          rms(c)
DAV:   1    -0.223417783438E+03   -0.33241E-01   -0.34636E-01  6264   0.187E+00    0.199E-01
RMM:   2    -0.223417729184E+03    0.54254E-04   -0.92834E-03  4842   0.288E-01
   7 F= -.22341773E+03 E0= -.22341773E+03  d E =-.343575E-01  mag=     0.0000
       N       E                     dE             d eps       ncg     rms          rms(c)
DAV:   1    -0.223440493524E+03   -0.22710E-01   -0.10083E+00  5468   0.320E+00    0.366E-01
RMM:   2    -0.223440618503E+03   -0.12498E-03   -0.26929E-02  5546   0.458E-01    0.218E-01
RMM:   3    -0.223440247334E+03    0.37117E-03   -0.44693E-03  4161   0.216E-01
   8 F= -.22344025E+03 E0= -.22344025E+03  d E =-.568756E-01  mag=    -0.0000
       N       E                     dE             d eps       ncg     rms          rms(c)
DAV:   1    -0.223464165509E+03   -0.23547E-01   -0.11148E+00  5392   0.315E+00    0.288E-01
RMM:   2    -0.223465572660E+03   -0.14072E-02   -0.46273E-02  5512   0.579E-01    0.166E-01
RMM:   3    -0.223464343851E+03    0.12288E-02   -0.42438E-03  4138   0.193E-01
   9 F= -.22346434E+03 E0= -.22346434E+03  d E =-.240965E-01  mag=     0.0000
       N       E                     dE             d eps       ncg     rms          rms(c)
DAV:   1    -0.223470642642E+03   -0.50700E-02   -0.76103E-01  5568   0.261E+00    0.248E-01
RMM:   2    -0.223471526803E+03   -0.88416E-03   -0.31612E-02  5496   0.485E-01    0.145E-01
RMM:   3    -0.223470865273E+03    0.66153E-03   -0.31797E-03  4006   0.181E-01
  10 F= -.22347087E+03 E0= -.22347087E+03  d E =-.306179E-01  mag=    -0.0000
       N       E                     dE             d eps       ncg     rms          rms(c)
DAV:   1    -0.223500414883E+03   -0.28888E-01   -0.11482E+00  5384   0.284E+00    0.332E-01
RMM:   2    -0.223499144454E+03    0.12704E-02   -0.27341E-02  5910   0.430E-01    0.175E-01
RMM:   3    -0.223498762174E+03    0.38228E-03   -0.45284E-03  4142   0.210E-01
  11 F= -.22349876E+03 E0= -.22349876E+03  d E =-.278969E-01  mag=     0.0000
       N       E                     dE             d eps       ncg     rms          rms(c)
DAV:   1    -0.223586498831E+03   -0.87354E-01   -0.10345E+01  5376   0.854E+00    0.101E+00
RMM:   2    -0.223575951948E+03    0.10547E-01   -0.24246E-01  6008   0.124E+00    0.524E-01
RMM:   3    -0.223569720057E+03    0.62319E-02   -0.43545E-02  6171   0.464E-01    0.128E-01
RMM:   4    -0.223568905707E+03    0.81435E-03   -0.49604E-03  4299   0.257E-01
  12 F= -.22356891E+03 E0= -.22356891E+03  d E =-.980404E-01  mag=    -0.0000
       N       E                     dE             d eps       ncg     rms          rms(c)
DAV:   1    -0.223702325469E+03   -0.13261E+00   -0.40984E+01  5376   0.172E+01    0.210E+00
RMM:   2    -0.223675822140E+03    0.26503E-01   -0.12061E+00  5989   0.265E+00    0.105E+00
RMM:   3    -0.223653127347E+03    0.22695E-01   -0.23411E-01  6276   0.960E-01    0.246E-01
RMM:   4    -0.223652053161E+03    0.10742E-02   -0.27193E-02  5856   0.443E-01    0.121E-01
RMM:   5    -0.223651993932E+03    0.59229E-04   -0.99232E-03  5064   0.349E-01
  13 F= -.22365199E+03 E0= -.22365199E+03  d E =-.181129E+00  mag=    -0.0000
       N       E                     dE             d eps       ncg     rms          rms(c)
DAV:   1    -0.223717293374E+03   -0.65240E-01   -0.42534E+00  5616   0.640E+00    0.696E-01
RMM:   2    -0.223722949096E+03   -0.56557E-02   -0.16342E-01  5397   0.112E+00    0.441E-01
RMM:   3    -0.223717336959E+03    0.56121E-02   -0.19093E-02  5777   0.344E-01    0.101E-01
RMM:   4    -0.223716514405E+03    0.82255E-03   -0.40991E-03  4160   0.252E-01
  14 F= -.22371651E+03 E0= -.22371651E+03  d E =-.645205E-01  mag=    -0.0000
       N       E                     dE             d eps       ncg     rms          rms(c)
DAV:   1    -0.223721265263E+03   -0.39283E-02   -0.18783E-01  6200   0.135E+00    0.141E-01
RMM:   2    -0.223720950303E+03    0.31496E-03   -0.72530E-03  4597   0.295E-01
  15 F= -.22372095E+03 E0= -.22372095E+03  d E =-.689564E-01  mag=    -0.0000
       N       E                     dE             d eps       ncg     rms          rms(c)
DAV:   1    -0.223756669005E+03   -0.35404E-01   -0.13218E+00  5396   0.322E+00    0.335E-01
RMM:   2    -0.223756112834E+03    0.55617E-03   -0.34622E-02  5797   0.518E-01    0.178E-01
RMM:   3    -0.223756068793E+03    0.44041E-04   -0.64021E-03  4386   0.277E-01
  16 F= -.22375607E+03 E0= -.22375607E+03  d E =-.351185E-01  mag=    -0.0000
       N       E                     dE             d eps       ncg     rms          rms(c)
DAV:   1    -0.223776540572E+03   -0.20428E-01   -0.27924E+00  5388   0.469E+00    0.499E-01
RMM:   2    -0.223776193391E+03    0.34718E-03   -0.70181E-02  5843   0.715E-01    0.270E-01
RMM:   3    -0.223775313762E+03    0.87963E-03   -0.11854E-02  5281   0.326E-01
  17 F= -.22377531E+03 E0= -.22377531E+03  d E =-.543635E-01  mag=     0.0000
       N       E                     dE             d eps       ncg     rms          rms(c)
DAV:   1    -0.223802712197E+03   -0.26519E-01   -0.17491E+00  5392   0.342E+00    0.361E-01
RMM:   2    -0.223802280591E+03    0.43161E-03   -0.45939E-02  5908   0.601E-01    0.192E-01
RMM:   3    -0.223802779263E+03   -0.49867E-03   -0.10403E-02  4991   0.335E-01
  18 F= -.22380278E+03 E0= -.22380278E+03  d E =-.274655E-01  mag=    -0.0000
       N       E                     dE             d eps       ncg     rms          rms(c)
DAV:   1    -0.223820582084E+03   -0.18301E-01   -0.46160E+00  5376   0.555E+00    0.588E-01
RMM:   2    -0.223820789111E+03   -0.20703E-03   -0.11111E-01  6023   0.887E-01    0.312E-01
RMM:   3    -0.223819647832E+03    0.11413E-02   -0.17724E-02  5862   0.376E-01
  19 F= -.22381965E+03 E0= -.22381965E+03  d E =-.443341E-01  mag=     0.0000
       N       E                     dE             d eps       ncg     rms          rms(c)
DAV:   1    -0.223839625134E+03   -0.18836E-01   -0.10454E+00  5560   0.245E+00    0.277E-01
RMM:   2    -0.223839043502E+03    0.58163E-03   -0.23609E-02  5917   0.450E-01
  20 F= -.22383904E+03 E0= -.22383904E+03  d E =-.193957E-01  mag=     0.0000
       N       E                     dE             d eps       ncg     rms          rms(c)
DAV:   1    -0.223893340927E+03   -0.53716E-01   -0.92905E+00  5376   0.728E+00    0.842E-01
RMM:   2    -0.223892042129E+03    0.12988E-02   -0.19085E-01  6240   0.108E+00    0.423E-01
RMM:   3    -0.223892053920E+03   -0.11791E-04   -0.36468E-02  6121   0.537E-01    0.989E-02
RMM:   4    -0.223890824428E+03    0.12295E-02   -0.12105E-02  5211   0.432E-01
  21 F= -.22389082E+03 E0= -.22389082E+03  d E =-.711766E-01  mag=     0.0000
       N       E                     dE             d eps       ncg     rms          rms(c)
DAV:   1    -0.223912316870E+03   -0.20263E-01   -0.36348E+01  5376   0.147E+01    0.175E+00
RMM:   2    -0.223935681724E+03   -0.23365E-01   -0.10343E+00  6287   0.222E+00    0.843E-01
RMM:   3    -0.223938164663E+03   -0.24829E-02   -0.21370E-01  6363   0.823E-01    0.190E-01
RMM:   4    -0.223940042339E+03   -0.18777E-02   -0.33857E-02  5422   0.447E-01    0.113E-01
RMM:   5    -0.223939491137E+03    0.55120E-03   -0.78916E-03  4867   0.330E-01
  22 F= -.22393949E+03 E0= -.22393949E+03  d E =-.119843E+00  mag=    -0.0000
       N       E                     dE             d eps       ncg     rms          rms(c)
DAV:   1    -0.223970015494E+03   -0.29973E-01   -0.18489E+00  5552   0.332E+00    0.331E-01
RMM:   2    -0.223969385272E+03    0.63022E-03   -0.41719E-02  6178   0.604E-01    0.167E-01
RMM:   3    -0.223970534751E+03   -0.11495E-02   -0.11204E-02  5235   0.390E-01
  23 F= -.22397053E+03 E0= -.22397053E+03  d E =-.310436E-01  mag=     0.0000
       N       E                     dE             d eps       ncg     rms          rms(c)
DAV:   1    -0.224038778467E+03   -0.69393E-01   -0.16574E+01  5376   0.998E+00    0.104E+00
RMM:   2    -0.224048824761E+03   -0.10046E-01   -0.38922E-01  6284   0.149E+00    0.510E-01
RMM:   3    -0.224047546955E+03    0.12778E-02   -0.61303E-02  6373   0.551E-01    0.113E-01
RMM:   4    -0.224047513405E+03    0.33550E-04   -0.98081E-03  4890   0.343E-01
  24 F= -.22404751E+03 E0= -.22404751E+03  d E =-.108022E+00  mag=    -0.0000
       N       E                     dE             d eps       ncg     rms          rms(c)
DAV:   1    -0.224012992398E+03    0.34555E-01   -0.63711E+01  5376   0.202E+01    0.227E+00
RMM:   2    -0.224126134119E+03   -0.11314E+00   -0.24274E+00  6280   0.334E+00    0.105E+00
RMM:   3    -0.224155043911E+03   -0.28910E-01   -0.58821E-01  6402   0.120E+00    0.285E-01
RMM:   4    -0.224164665716E+03   -0.96218E-02   -0.11214E-01  5971   0.633E-01    0.204E-01
RMM:   5    -0.224163694129E+03    0.97159E-03   -0.18175E-02  5187   0.402E-01
  25 F= -.22416369E+03 E0= -.22416369E+03  d E =-.224203E+00  mag=    -0.0000
       N       E                     dE             d eps       ncg     rms          rms(c)
DAV:   1    -0.222283945227E+03    0.18807E+01   -0.22127E+02  5376   0.405E+01    0.539E+00
RMM:   2    -0.223539767658E+03   -0.12558E+01   -0.18753E+01  6123   0.809E+00    0.225E+00
RMM:   3    -0.223946412127E+03   -0.40664E+00   -0.48645E+00  6186   0.270E+00    0.923E-01
RMM:   4    -0.224164267046E+03   -0.21785E+00   -0.20424E+00  6151   0.171E+00    0.611E-01
RMM:   5    -0.224220669401E+03   -0.56402E-01   -0.61237E-01  6149   0.112E+00    0.654E-01
RMM:   6    -0.224239685252E+03   -0.19016E-01   -0.12653E-01  5014   0.535E-01    0.913E-01
RMM:   7    -0.224210417195E+03    0.29268E-01   -0.21012E-02  5442   0.538E-01    0.305E-01
RMM:   8    -0.224209028799E+03    0.13884E-02   -0.14066E-03  4049   0.142E-01
  26 F= -.22420903E+03 E0= -.22420903E+03  d E =-.269538E+00  mag=     0.0000
       N       E                     dE             d eps       ncg     rms          rms(c)
DAV:   1    -0.224363426319E+03   -0.15301E+00   -0.55480E+00  5960   0.740E+00    0.802E-01
RMM:   2    -0.224371444990E+03   -0.80187E-02   -0.23151E-01  5601   0.124E+00    0.485E-01
RMM:   3    -0.224361329130E+03    0.10116E-01   -0.21849E-02  6118   0.349E-01    0.109E-01
RMM:   4    -0.224360742571E+03    0.58656E-03   -0.13178E-03  3971   0.137E-01
  27 F= -.22436074E+03 E0= -.22436074E+03  d E =-.151714E+00  mag=     0.0000
       N       E                     dE             d eps       ncg     rms          rms(c)
DAV:   1    -0.224362063849E+03   -0.73472E-03   -0.51801E-02  6592   0.726E-01    0.785E-02
RMM:   2    -0.224362003389E+03    0.60460E-04   -0.25147E-03  3969   0.195E-01
  28 F= -.22436200E+03 E0= -.22436200E+03  d E =-.152975E+00  mag=     0.0000
       N       E                     dE             d eps       ncg     rms          rms(c)
DAV:   1    -0.224437121407E+03   -0.75058E-01   -0.24551E+00  5492   0.500E+00    0.399E-01
RMM:   2    -0.224439285758E+03   -0.21644E-02   -0.56045E-02  6064   0.664E-01    0.227E-01
RMM:   3    -0.224438053170E+03    0.12326E-02   -0.63202E-03  4680   0.257E-01
  29 F= -.22443805E+03 E0= -.22443805E+03  d E =-.760498E-01  mag=    -0.0000
       N       E                     dE             d eps       ncg     rms          rms(c)
DAV:   1    -0.224468913570E+03   -0.29628E-01   -0.34910E+00  5440   0.596E+00    0.481E-01
RMM:   2    -0.224472425491E+03   -0.35119E-02   -0.80720E-02  6066   0.795E-01    0.278E-01
RMM:   3    -0.224470687386E+03    0.17381E-02   -0.93993E-03  5598   0.313E-01
  30 F= -.22447069E+03 E0= -.22447069E+03  d E =-.108684E+00  mag=     0.0000
       N       E                     dE             d eps       ncg     rms          rms(c)
DAV:   1    -0.224513646985E+03   -0.41221E-01   -0.46537E+00  5376   0.646E+00    0.469E-01
RMM:   2    -0.224520370799E+03   -0.67238E-02   -0.11305E-01  6252   0.942E-01    0.268E-01
RMM:   3    -0.224518918002E+03    0.14528E-02   -0.11850E-02  5972   0.357E-01
  31 F= -.22451892E+03 E0= -.22451892E+03  d E =-.482306E-01  mag=     0.0000
       N       E                     dE             d eps       ncg     rms          rms(c)
DAV:   1    -0.224520461373E+03   -0.90574E-04   -0.24771E-01  6184   0.151E+00    0.123E-01
RMM:   2    -0.224520790666E+03   -0.32929E-03   -0.87284E-03  5376   0.353E-01
  32 F= -.22452079E+03 E0= -.22452079E+03  d E =-.501033E-01  mag=     0.0000
       N       E                     dE             d eps       ncg     rms          rms(c)
DAV:   1    -0.224542938182E+03   -0.22477E-01   -0.26272E+00  5400   0.431E+00    0.317E-01
RMM:   2    -0.224546128818E+03   -0.31906E-02   -0.52322E-02  6421   0.647E-01    0.172E-01
RMM:   3    -0.224546130728E+03   -0.19094E-05   -0.88806E-03  5303   0.366E-01
  33 F= -.22454613E+03 E0= -.22454613E+03  d E =-.253401E-01  mag=    -0.0000
       N       E                     dE             d eps       ncg     rms          rms(c)
DAV:   1    -0.224552099156E+03   -0.59703E-02   -0.57787E+00  5392   0.641E+00    0.465E-01
RMM:   2    -0.224559799342E+03   -0.77002E-02   -0.11608E-01  6467   0.902E-01    0.251E-01
RMM:   3    -0.224560343620E+03   -0.54428E-03   -0.15719E-02  5751   0.423E-01
  34 F= -.22456034E+03 E0= -.22456034E+03  d E =-.395530E-01  mag=     0.0000
       N       E                     dE             d eps       ncg     rms          rms(c)
DAV:   1    -0.224575340899E+03   -0.15542E-01   -0.14810E+00  5432   0.309E+00    0.207E-01
RMM:   2    -0.224576786197E+03   -0.14453E-02   -0.30189E-02  6275   0.524E-01    0.114E-01
RMM:   3    -0.224577396753E+03   -0.61056E-03   -0.78420E-03  5223   0.375E-01
  35 F= -.22457740E+03 E0= -.22457740E+03  d E =-.170531E-01  mag=    -0.0000
       N       E                     dE             d eps       ncg     rms          rms(c)
DAV:   1    -0.224591889933E+03   -0.15104E-01   -0.13125E+01  5376   0.918E+00    0.613E-01
RMM:   2    -0.224613216369E+03   -0.21326E-01   -0.25762E-01  6572   0.117E+00    0.325E-01
RMM:   3    -0.224616269661E+03   -0.30533E-02   -0.34681E-02  5994   0.468E-01    0.844E-02
RMM:   4    -0.224616868556E+03   -0.59889E-03   -0.11151E-02  5480   0.389E-01
  36 F= -.22461687E+03 E0= -.22461687E+03  d E =-.565249E-01  mag=     0.0000
       N       E                     dE             d eps       ncg     rms          rms(c)
DAV:   1    -0.224638277021E+03   -0.22007E-01   -0.83223E-01  5496   0.244E+00    0.192E-01
RMM:   2    -0.224638662956E+03   -0.38594E-03   -0.19557E-02  5942   0.451E-01
  37 F= -.22463866E+03 E0= -.22463866E+03  d E =-.217944E-01  mag=    -0.0000
       N       E                     dE             d eps       ncg     rms          rms(c)
DAV:   1    -0.224660972909E+03   -0.22696E-01   -0.45724E+00  5376   0.568E+00    0.455E-01
RMM:   2    -0.224666156791E+03   -0.51839E-02   -0.92971E-02  6360   0.836E-01    0.253E-01
RMM:   3    -0.224666278620E+03   -0.12183E-03   -0.18275E-02  5591   0.480E-01
  38 F= -.22466628E+03 E0= -.22466628E+03  d E =-.494101E-01  mag=     0.0000
       N       E                     dE             d eps       ncg     rms          rms(c)
DAV:   1    -0.224683901703E+03   -0.17745E-01   -0.11621E+00  5400   0.281E+00    0.193E-01
RMM:   2    -0.224684686105E+03   -0.78440E-03   -0.27082E-02  6142   0.552E-01    0.108E-01
RMM:   3    -0.224685515604E+03   -0.82950E-03   -0.98399E-03  5091   0.421E-01
  39 F= -.22468552E+03 E0= -.22468552E+03  d E =-.192370E-01  mag=     0.0000
       N       E                     dE             d eps       ncg     rms          rms(c)
DAV:   1    -0.224701399604E+03   -0.16713E-01   -0.10325E+01  5376   0.832E+00    0.553E-01
RMM:   2    -0.224717330361E+03   -0.15931E-01   -0.20206E-01  6520   0.107E+00    0.299E-01
RMM:   3    -0.224719366301E+03   -0.20359E-02   -0.26973E-02  5893   0.422E-01    0.855E-02
RMM:   4    -0.224720017119E+03   -0.65082E-03   -0.96232E-03  5238   0.381E-01
  40 F= -.22472002E+03 E0= -.22472002E+03  d E =-.537385E-01  mag=    -0.0000
       N       E                     dE             d eps       ncg     rms          rms(c)
DAV:   1    -0.224734974818E+03   -0.15609E-01   -0.58364E-01  5600   0.226E+00    0.164E-01
RMM:   2    -0.224735187181E+03   -0.21236E-03   -0.18675E-02  6129   0.471E-01
  41 F= -.22473519E+03 E0= -.22473519E+03  d E =-.151701E-01  mag=    -0.0000
       N       E                     dE             d eps       ncg     rms          rms(c)
DAV:   1    -0.224741852967E+03   -0.68781E-02   -0.72610E-01  5416   0.251E+00    0.207E-01
RMM:   2    -0.224742020018E+03   -0.16705E-03   -0.22560E-02  6209   0.527E-01
  42 F= -.22474202E+03 E0= -.22474202E+03  d E =-.220029E-01  mag=     0.0000
