unknown system                          
           1
     5.818749    0.003614    0.768180
     1.275258    8.728877    0.358078
    -0.007497   -0.002616   10.079958
   Li   B    H 
   2  18  28
Direct configuration=     1
   0.91631800  0.72874200  0.20780700
   0.08368200  0.27125800  0.79219300
   0.74792200  0.86462600  0.58353700
   0.25207800  0.13537400  0.41646300
   0.65659200  0.00090800  0.72752300
   0.34340800  0.99909200  0.27247700
   0.71517900  0.88412500  0.87916000
   0.28482100  0.11587500  0.12084000
   0.53127000  0.72751800  0.91368700
   0.46873000  0.27248200  0.08631300
   0.61236100  0.61584600  0.74730000
   0.38763900  0.38415400  0.25270000
   0.59725100  0.70162900  0.58568800
   0.40274900  0.29837100  0.41431200
   0.88516000  0.85332600  0.72636500
   0.11484000  0.14667400  0.27363500
   0.81424500  0.69310400  0.82762500
   0.18575500  0.30689600  0.17237500
   0.85547700  0.67954800  0.64964500
   0.14452300  0.32045200  0.35035500
   0.52754400  0.85085500  0.57429400
   0.47245600  0.14914500  0.42570600
   0.43248100  0.69017000  0.68417300
   0.56751900  0.30983000  0.31582700
   0.82848900  0.91023800  0.47700700
   0.17151100  0.08976200  0.52299300
   0.45077400  0.00215100  0.73077200
   0.54922600  0.99784900  0.26922800
   0.71393100  0.12671400  0.71125800
   0.28606900  0.87328600  0.28874200
   0.49434300  0.88403700  0.91498000
   0.50565700  0.11596300  0.08502000
   0.79883500  0.92972500  0.96957800
   0.20116500  0.07027500  0.03042200
   0.33980100  0.73911600  0.87818100
   0.66019900  0.26088400  0.12181900
   0.53019100  0.66758800  0.02299300
   0.46980900  0.33241200  0.97700700
   0.57320100  0.48660100  0.76097200
   0.42679900  0.51339900  0.23902800
   0.97982800  0.40304800  0.40216900
   0.02017200  0.59695200  0.59783100
   0.05032600  0.38955800  0.11292300
   0.94967400  0.61044200  0.88707700
   0.92594200  0.10796700  0.28258800
   0.07405800  0.89203300  0.71741200
   0.44503900  0.36182200  0.50821100
   0.55496100  0.63817800  0.49178900
unknown system                          
           1
     5.797730    0.009526    0.758048
     1.279802    8.691209    0.351398
    -0.019761   -0.006895   10.040096
   Li   B    H 
   2  18  28
Direct configuration=     2
   0.91639960  0.72977378  0.20783180
   0.08360040  0.27022622  0.79216820
   0.74782656  0.86450711  0.58352637
   0.25217344  0.13549289  0.41647363
   0.65704555  0.00096568  0.72774376
   0.34295445  0.99903432  0.27225624
   0.71515689  0.88386183  0.87927555
   0.28484311  0.11613817  0.12072445
   0.53129587  0.72747471  0.91373502
   0.46870413  0.27252529  0.08626498
   0.61245310  0.61578306  0.74731144
   0.38754690  0.38421694  0.25268856
   0.59726662  0.70157723  0.58579899
   0.40273338  0.29842277  0.41420101
   0.88566659  0.85302394  0.72646487
   0.11433341  0.14697606  0.27353513
   0.81423724  0.69297198  0.82751920
   0.18576276  0.30702802  0.17248080
   0.85538623  0.67953624  0.64969655
   0.14461377  0.32046376  0.35030345
   0.52749826  0.85086040  0.57430858
   0.47250174  0.14913960  0.42569142
   0.43252507  0.69011743  0.68417006
   0.56747493  0.30988257  0.31582994
   0.82853800  0.91017181  0.47657010
   0.17146200  0.08982819  0.52342990
   0.44940291  0.00285682  0.73087122
   0.55059709  0.99714318  0.26912878
   0.71545414  0.12763757  0.71137247
   0.28454586  0.87236243  0.28862753
   0.49434103  0.88395353  0.91492608
   0.50565897  0.11604647  0.08507392
   0.79911557  0.92957307  0.97022811
   0.20088443  0.07042693  0.02977189
   0.33983464  0.73900877  0.87817279
   0.66016536  0.26099123  0.12182721
   0.53044931  0.66761994  0.02319940
   0.46955069  0.33238006  0.97680060
   0.57336243  0.48638882  0.76101080
   0.42663757  0.51361118  0.23898920
   0.97969094  0.40311849  0.40213944
   0.02030906  0.59688151  0.59786056
   0.04977135  0.39000450  0.11278151
   0.95022865  0.60999550  0.88721849
   0.92605920  0.10793161  0.28253553
   0.07394080  0.89206839  0.71746447
   0.44505007  0.36180864  0.50834349
   0.55494993  0.63819136  0.49165651
unknown system                          
           1
     5.793429    0.010865    0.755791
     1.280924    8.683116    0.349951
    -0.022562   -0.007812   10.031740
   Li   B    H 
   2  18  28
Direct configuration=     3
   0.91653165  0.73146589  0.20787317
   0.08346835  0.26853411  0.79212683
   0.74767028  0.86431219  0.58350878
   0.25232972  0.13568781  0.41649122
   0.65778947  0.00106007  0.72810607
   0.34221053  0.99893993  0.27189393
   0.71512134  0.88343030  0.87946481
   0.28487866  0.11656970  0.12053519
   0.53133847  0.72740371  0.91381375
   0.46866153  0.27259629  0.08618625
   0.61260422  0.61567978  0.74733022
   0.38739578  0.38432022  0.25266978
   0.59729255  0.70149237  0.58598093
   0.40270745  0.29850763  0.41401907
   0.88649786  0.85252827  0.72662878
   0.11350214  0.14747173  0.27337122
   0.81422453  0.69275542  0.82734566
   0.18577547  0.30724458  0.17265434
   0.85523754  0.67951705  0.64978098
   0.14476246  0.32048295  0.35021902
   0.52742329  0.85086929  0.57433244
   0.47257671  0.14913071  0.42566756
   0.43259741  0.69003117  0.68416524
   0.56740259  0.30996883  0.31583476
   0.82861758  0.91006301  0.47585380
   0.17138242  0.08993699  0.52414620
   0.44715403  0.00401535  0.73103332
   0.55284597  0.99598465  0.26896668
   0.71794992  0.12915127  0.71156186
   0.28205008  0.87084873  0.28843814
   0.49433785  0.88381663  0.91483762
   0.50566215  0.11618337  0.08516238
   0.79957712  0.92932404  0.97129407
   0.20042288  0.07067596  0.02870593
   0.33988996  0.73883289  0.87815929
   0.66011004  0.26116711  0.12184071
   0.53087315  0.66767226  0.02353799
   0.46912685  0.33232774  0.97646201
   0.57362753  0.48604075  0.76107440
   0.42637247  0.51395925  0.23892560
   0.97946606  0.40323417  0.40209092
   0.02053394  0.59676583  0.59790908
   0.04886097  0.39073708  0.11254941
   0.95113903  0.60926292  0.88745059
   0.92625130  0.10787347  0.28244958
   0.07374870  0.89212653  0.71755042
   0.44506852  0.36178679  0.50856071
   0.55493148  0.63821321  0.49143929
unknown system                          
           1
     5.780528    0.014880    0.749019
     1.284292    8.658837    0.345611
    -0.030967   -0.010564   10.006671
   Li   B    H 
   2  18  28
Direct configuration=     4
   0.91657034  0.73196793  0.20788705
   0.08342966  0.26803207  0.79211295
   0.74772411  0.86438194  0.58338886
   0.25227589  0.13561806  0.41661114
   0.65763774  0.00142572  0.72816806
   0.34236226  0.99857428  0.27183194
   0.71526522  0.88344118  0.87964722
   0.28473478  0.11655882  0.12035278
   0.53143917  0.72734695  0.91386900
   0.46856083  0.27265305  0.08613100
   0.61257092  0.61557808  0.74736005
   0.38742908  0.38442192  0.25263995
   0.59719661  0.70143915  0.58592060
   0.40280339  0.29856085  0.41407940
   0.88657623  0.85240515  0.72668897
   0.11342377  0.14759485  0.27331103
   0.81449521  0.69255754  0.82744594
   0.18550479  0.30744246  0.17255406
   0.85540932  0.67939835  0.64976940
   0.14459068  0.32060165  0.35023060
   0.52727537  0.85093835  0.57432696
   0.47272463  0.14906165  0.42567304
   0.43249746  0.69002807  0.68417177
   0.56750254  0.30997193  0.31582823
   0.82858789  0.91000208  0.47571545
   0.17141211  0.08999792  0.52428455
   0.44690087  0.00437349  0.73106933
   0.55309913  0.99562651  0.26893067
   0.71853775  0.12936568  0.71165696
   0.28146225  0.87063432  0.28834304
   0.49421128  0.88383596  0.91483498
   0.50578872  0.11616404  0.08516502
   0.79966622  0.92922278  0.97155007
   0.20033378  0.07077722  0.02844993
   0.33973923  0.73879365  0.87812843
   0.66026077  0.26120635  0.12187157
   0.53100531  0.66766002  0.02367387
   0.46899469  0.33233998  0.97632613
   0.57369873  0.48587727  0.76109163
   0.42630127  0.51412273  0.23890837
   0.97930761  0.40333003  0.40210547
   0.02069239  0.59666997  0.59789453
   0.04863033  0.39093694  0.11249696
   0.95136967  0.60906306  0.88750304
   0.92604162  0.10782717  0.28242354
   0.07395838  0.89217283  0.71757646
   0.44510151  0.36181606  0.50866711
   0.55489849  0.63818394  0.49133289
unknown system                          
           1
     5.754726    0.022909    0.735477
     1.291028    8.610280    0.336929
    -0.047776   -0.016067    9.956533
   Li   B    H 
   2  18  28
Direct configuration=     5
   0.91668591  0.73347544  0.20792897
   0.08331409  0.26652456  0.79207103
   0.74788548  0.86459133  0.58302888
   0.25211452  0.13540867  0.41697112
   0.65718186  0.00252379  0.72835426
   0.34281814  0.99747621  0.27164574
   0.71569746  0.88347385  0.88019496
   0.28430254  0.11652615  0.11980504
   0.53174168  0.72717646  0.91403490
   0.46825832  0.27282354  0.08596510
   0.61247109  0.61527274  0.74744955
   0.38752891  0.38472726  0.25255045
   0.59690853  0.70127936  0.58573941
   0.40309147  0.29872064  0.41426059
   0.88681176  0.85203543  0.72686965
   0.11318824  0.14796457  0.27313035
   0.81530827  0.69196326  0.82774707
   0.18469173  0.30803674  0.17225293
   0.85592517  0.67904182  0.64973466
   0.14407483  0.32095818  0.35026534
   0.52683118  0.85114576  0.57431045
   0.47316882  0.14885424  0.42568955
   0.43219740  0.69001880  0.68419133
   0.56780260  0.30998120  0.31580867
   0.82849862  0.90981908  0.47530004
   0.17150138  0.09018092  0.52469996
   0.44614041  0.00544902  0.73117745
   0.55385959  0.99455098  0.26882255
   0.72030248  0.13000929  0.71194290
   0.27969752  0.86999071  0.28805710
   0.49383127  0.88389409  0.91482698
   0.50616873  0.11610591  0.08517302
   0.79993421  0.92891877  0.97231870
   0.20006579  0.07108123  0.02768130
   0.33928671  0.73867588  0.87803567
   0.66071329  0.26132412  0.12196433
   0.53140229  0.66762324  0.02408187
   0.46859771  0.33237676  0.97591813
   0.57391272  0.48538635  0.76114332
   0.42608728  0.51461365  0.23885668
   0.97883180  0.40361795  0.40214914
   0.02116820  0.59638205  0.59785086
   0.04793756  0.39153718  0.11233948
   0.95206244  0.60846282  0.88766052
   0.92541211  0.10768824  0.28234521
   0.07458789  0.89231176  0.71765479
   0.44520068  0.36190394  0.50898659
   0.55479932  0.63809606  0.49101341
unknown system                          
           1
     5.756973    0.023501    0.736424
     1.292246    8.615252    0.338546
    -0.047134   -0.014606    9.964123
   Li   B    H 
   2  18  28
Direct configuration=     6
   0.91691409  0.73649885  0.20801441
   0.08308591  0.26350115  0.79198559
   0.74820747  0.86501090  0.58230753
   0.25179253  0.13498910  0.41769247
   0.65626584  0.00472664  0.72872801
   0.34373416  0.99527336  0.27127199
   0.71656542  0.88353932  0.88129355
   0.28343458  0.11646068  0.11870645
   0.53234898  0.72683436  0.91436768
   0.46765102  0.27316564  0.08563232
   0.61227195  0.61466048  0.74762863
   0.38772805  0.38533952  0.25237137
   0.59633092  0.70095905  0.58537572
   0.40366908  0.29904095  0.41462428
   0.88728533  0.85129380  0.72723180
   0.11271467  0.14870620  0.27276820
   0.81694048  0.69077079  0.82835112
   0.18305952  0.30922921  0.17164888
   0.85696007  0.67832627  0.64966524
   0.14303993  0.32167373  0.35033476
   0.52594018  0.85156216  0.57427707
   0.47405982  0.14843784  0.42572293
   0.43159596  0.69000051  0.68423024
   0.56840404  0.30999949  0.31576976
   0.82831894  0.90945188  0.47446699
   0.17168106  0.09054812  0.52553301
   0.44461365  0.00760692  0.73139433
   0.55538635  0.99239308  0.26860567
   0.72383944  0.13129863  0.71251851
   0.27616056  0.86870137  0.28748149
   0.49306931  0.88401101  0.91481060
   0.50693069  0.11598899  0.08518940
   0.80047431  0.92830928  0.97385964
   0.19952569  0.07169072  0.02614036
   0.33837956  0.73844004  0.87784915
   0.66162044  0.26155996  0.12215085
   0.53219935  0.66754938  0.02490019
   0.46780065  0.33245062  0.97509981
   0.57434302  0.48440157  0.76124676
   0.42565698  0.51559843  0.23875324
   0.97787738  0.40419589  0.40223644
   0.02212262  0.59580411  0.59776356
   0.04654689  0.39274158  0.11202354
   0.95345311  0.60725842  0.88797646
   0.92415025  0.10741012  0.28218741
   0.07584975  0.89258988  0.71781259
   0.44540015  0.36208031  0.50962726
   0.55459985  0.63791969  0.49037274
unknown system                          
           1
     5.760862    0.024523    0.738061
     1.294352    8.623854    0.341344
    -0.046024   -0.012079    9.977255
   Li   B    H 
   2  18  28
Direct configuration=     7
   0.91691932  0.73689786  0.20803340
   0.08308068  0.26310214  0.79196660
   0.74804832  0.86509798  0.58253641
   0.25195168  0.13490202  0.41746359
   0.65635156  0.00492148  0.72874862
   0.34364844  0.99507852  0.27125138
   0.71654920  0.88373980  0.88123608
   0.28345080  0.11626020  0.11876392
   0.53221812  0.72673712  0.91447155
   0.46778188  0.27326288  0.08552845
   0.61232732  0.61450827  0.74767161
   0.38767268  0.38549173  0.25232839
   0.59631964  0.70103689  0.58528960
   0.40368036  0.29896311  0.41471040
   0.88730221  0.85193375  0.72729995
   0.11269779  0.14806625  0.27270005
   0.81698282  0.69087965  0.82844022
   0.18301718  0.30912035  0.17155978
   0.85681809  0.67818475  0.64966761
   0.14318191  0.32181525  0.35033239
   0.52549360  0.85185148  0.57420891
   0.47450640  0.14814852  0.42579109
   0.43109095  0.69008229  0.68418372
   0.56890905  0.30991771  0.31581628
   0.82844684  0.90951845  0.47418780
   0.17155316  0.09048155  0.52581220
   0.44503222  0.00809004  0.73139168
   0.55496778  0.99190996  0.26860832
   0.72375214  0.13116618  0.71266470
   0.27624786  0.86883382  0.28733530
   0.49286438  0.88422147  0.91486282
   0.50713562  0.11577853  0.08513718
   0.80074357  0.92838089  0.97426602
   0.19925643  0.07161911  0.02573398
   0.33823593  0.73839712  0.87784492
   0.66176407  0.26160288  0.12215508
   0.53226767  0.66740935  0.02516094
   0.46773233  0.33259065  0.97483906
   0.57428064  0.48391009  0.76125393
   0.42571936  0.51608991  0.23874607
   0.97691429  0.40476668  0.40251971
   0.02308571  0.59523332  0.59748029
   0.04571885  0.39329554  0.11168467
   0.95428115  0.60670446  0.88831533
   0.92375060  0.10742723  0.28211355
   0.07624940  0.89257277  0.71788645
   0.44570397  0.36240285  0.51010340
   0.55429603  0.63759715  0.48989660
unknown system                          
           1
     5.758765    0.026094    0.737371
     1.296020    8.621914    0.342744
    -0.047063   -0.010263    9.976077
   Li   B    H 
   2  18  28
Direct configuration=     8
   0.91692830  0.73758777  0.20806614
   0.08307170  0.26241223  0.79193386
   0.74777306  0.86524849  0.58293209
   0.25222694  0.13475151  0.41706791
   0.65649976  0.00525836  0.72878419
   0.34350024  0.99474164  0.27121581
   0.71652114  0.88408646  0.88113669
   0.28347886  0.11591354  0.11886331
   0.53199182  0.72656899  0.91465116
   0.46800818  0.27343101  0.08534884
   0.61242310  0.61424507  0.74774595
   0.38757690  0.38575493  0.25225405
   0.59630012  0.70117152  0.58514070
   0.40369988  0.29882848  0.41485930
   0.88733129  0.85304020  0.72741760
   0.11266871  0.14695980  0.27258240
   0.81705603  0.69106784  0.82859421
   0.18294397  0.30893216  0.17140579
   0.85657258  0.67794008  0.64967176
   0.14342742  0.32205992  0.35032824
   0.52472125  0.85235179  0.57409105
   0.47527875  0.14764821  0.42590895
   0.43021760  0.69022375  0.68410335
   0.56978240  0.30977625  0.31589665
   0.82866805  0.90963362  0.47370513
   0.17133195  0.09036638  0.52629487
   0.44575602  0.00892532  0.73138694
   0.55424398  0.99107468  0.26861306
   0.72360117  0.13093714  0.71291747
   0.27639883  0.86906286  0.28708253
   0.49250993  0.88458536  0.91495308
   0.50749007  0.11541464  0.08504692
   0.80120917  0.92850457  0.97496848
   0.19879083  0.07149543  0.02503152
   0.33798755  0.73832292  0.87783765
   0.66201245  0.26167708  0.12216235
   0.53238580  0.66716715  0.02561172
   0.46761420  0.33283285  0.97438828
   0.57417284  0.48306031  0.76126645
   0.42582716  0.51693969  0.23873355
   0.97524863  0.40575364  0.40300937
   0.02475137  0.59424636  0.59699063
   0.04428682  0.39425354  0.11109881
   0.95571318  0.60574646  0.88890119
   0.92305946  0.10745688  0.28198591
   0.07694054  0.89254312  0.71801409
   0.44622926  0.36296036  0.51092641
   0.55377074  0.63703964  0.48907359
unknown system                          
           1
     5.757028    0.027394    0.736799
     1.297401    8.620307    0.343903
    -0.047923   -0.008759    9.975101
   Li   B    H 
   2  18  28
Direct configuration=     9
   0.91694544  0.73846853  0.20810059
   0.08305456  0.26153147  0.79189941
   0.74780752  0.86561154  0.58264226
   0.25219248  0.13438846  0.41735774
   0.65672593  0.00553450  0.72887299
   0.34327407  0.99446550  0.27112701
   0.71666125  0.88451046  0.88163881
   0.28333875  0.11548954  0.11836119
   0.53175664  0.72642697  0.91496183
   0.46824336  0.27357303  0.08503817
   0.61232657  0.61369298  0.74778074
   0.38767343  0.38630702  0.25221926
   0.59563309  0.70093319  0.58456908
   0.40436691  0.29906681  0.41543092
   0.88733893  0.85351952  0.72751168
   0.11266107  0.14648048  0.27248832
   0.81800543  0.69072021  0.82903808
   0.18199457  0.30927979  0.17096192
   0.85766602  0.67738565  0.64945991
   0.14233398  0.32261435  0.35054009
   0.52414300  0.85277317  0.57399376
   0.47585700  0.14722683  0.42600624
   0.42967434  0.69027462  0.68395261
   0.57032566  0.30972538  0.31604739
   0.82847383  0.90953927  0.47378039
   0.17152617  0.09046073  0.52621961
   0.44630035  0.00989208  0.73139065
   0.55369965  0.99010792  0.26860935
   0.72361289  0.13096415  0.71316950
   0.27638711  0.86903585  0.28683050
   0.49234925  0.88487766  0.91502862
   0.50765075  0.11512234  0.08497138
   0.80130804  0.92843209  0.97529331
   0.19869196  0.07156791  0.02470669
   0.33788871  0.73822004  0.87789852
   0.66211129  0.26177996  0.12210148
   0.53249763  0.66704552  0.02587330
   0.46750237  0.33295448  0.97412670
   0.57422060  0.48260354  0.76123971
   0.42577940  0.51739646  0.23876029
   0.97472616  0.40617760  0.40313544
   0.02527384  0.59382240  0.59686456
   0.04369386  0.39466872  0.11088732
   0.95630614  0.60533128  0.88911268
   0.92230968  0.10743508  0.28184233
   0.07769032  0.89256492  0.71815767
   0.44649564  0.36307545  0.51117692
   0.55350436  0.63692455  0.48882308
unknown system                          
           1
     5.748030    0.029318    0.733256
     1.298098    8.607306    0.343954
    -0.052196   -0.007487    9.961036
   Li   B    H 
   2  18  28
Direct configuration=    10
   0.91695939  0.73919818  0.20812904
   0.08304061  0.26080182  0.79187096
   0.74783592  0.86591235  0.58240214
   0.25216408  0.13408765  0.41759786
   0.65691327  0.00576321  0.72894652
   0.34308673  0.99423679  0.27105348
   0.71677732  0.88486162  0.88205471
   0.28322268  0.11513838  0.11794529
   0.53156187  0.72630930  0.91521918
   0.46843813  0.27369070  0.08478082
   0.61224675  0.61323561  0.74780961
   0.38775325  0.38676439  0.25219039
   0.59508035  0.70073595  0.58409558
   0.40491965  0.29926405  0.41590442
   0.88734515  0.85391660  0.72758956
   0.11265485  0.14608340  0.27241044
   0.81879228  0.69043199  0.82940583
   0.18120772  0.30956801  0.17059417
   0.85857216  0.67692620  0.64928453
   0.14142784  0.32307380  0.35071547
   0.52366373  0.85312236  0.57391311
   0.47633627  0.14687764  0.42608689
   0.42922416  0.69031686  0.68382772
   0.57077584  0.30968314  0.31617228
   0.82831294  0.90946111  0.47384273
   0.17168706  0.09053889  0.52615727
   0.44675111  0.01069290  0.73139364
   0.55324889  0.98930710  0.26860636
   0.72362265  0.13098648  0.71337827
   0.27637735  0.86901352  0.28662173
   0.49221605  0.88511982  0.91509115
   0.50778395  0.11488018  0.08490885
   0.80139005  0.92837197  0.97556239
   0.19860995  0.07162803  0.02443761
   0.33780685  0.73813481  0.87794896
   0.66219315  0.26186519  0.12205104
   0.53259038  0.66694470  0.02609000
   0.46740962  0.33305530  0.97391000
   0.57426029  0.48222512  0.76121762
   0.42573971  0.51777488  0.23878238
   0.97429314  0.40652888  0.40323981
   0.02570686  0.59347112  0.59676019
   0.04320237  0.39501280  0.11071208
   0.95679763  0.60498720  0.88928792
   0.92168840  0.10741715  0.28172338
   0.07831160  0.89258285  0.71827662
   0.44671637  0.36317070  0.51138443
   0.55328363  0.63682930  0.48861557
unknown system                          
           1
     5.721037    0.035091    0.722627
     1.300189    8.568304    0.344107
    -0.065015   -0.003670    9.918841
   Li   B    H 
   2  18  28
Direct configuration=    11
   0.91699566  0.74046042  0.20817190
   0.08300434  0.25953958  0.79182810
   0.74770370  0.86586855  0.58232905
   0.25229630  0.13413145  0.41767095
   0.65738404  0.00601334  0.72911767
   0.34261596  0.99398666  0.27088233
   0.71689457  0.88489015  0.88248179
   0.28310543  0.11510985  0.11751821
   0.53173871  0.72621212  0.91545520
   0.46826129  0.27378788  0.08454480
   0.61262321  0.61292649  0.74769058
   0.38737679  0.38707351  0.25230942
   0.59488532  0.70064896  0.58401454
   0.40511468  0.29935104  0.41598546
   0.88772392  0.85368079  0.72768941
   0.11227608  0.14631921  0.27231059
   0.81935757  0.69017637  0.82959958
   0.18064243  0.30982363  0.17040042
   0.85880598  0.67681832  0.64924222
   0.14119402  0.32318168  0.35075778
   0.52325216  0.85343484  0.57379801
   0.47674784  0.14656516  0.42620199
   0.42889043  0.69025941  0.68357192
   0.57110957  0.30974059  0.31642808
   0.82815111  0.90946387  0.47381296
   0.17184889  0.09053613  0.52618704
   0.44693950  0.01195587  0.73141668
   0.55306050  0.98804413  0.26858332
   0.72391108  0.13139706  0.71366360
   0.27608892  0.86860294  0.28633640
   0.49223573  0.88535831  0.91519173
   0.50776427  0.11464169  0.08480827
   0.80152205  0.92833465  0.97602994
   0.19847795  0.07166535  0.02397006
   0.33770851  0.73799122  0.87807485
   0.66229149  0.26200878  0.12192515
   0.53267241  0.66683234  0.02640817
   0.46732759  0.33316766  0.97359183
   0.57431862  0.48169890  0.76118914
   0.42568138  0.51830110  0.23881086
   0.97369684  0.40699962  0.40337201
   0.02630316  0.59300038  0.59662799
   0.04253754  0.39543000  0.11046492
   0.95746246  0.60457000  0.88953508
   0.92100395  0.10736217  0.28152457
   0.07899605  0.89263783  0.71847543
   0.44711430  0.36327639  0.51175456
   0.55288570  0.63672361  0.48824544
unknown system                          
           1
     5.667050    0.046636    0.701369
     1.304372    8.490300    0.344412
    -0.090653    0.003965    9.834451
   Li   B    H 
   2  18  28
Direct configuration=    12
   0.91710298  0.74425280  0.20830062
   0.08289702  0.25574720  0.79169938
   0.74730628  0.86573705  0.58210938
   0.25269372  0.13426295  0.41789062
   0.65879870  0.00676446  0.72963212
   0.34120130  0.99323554  0.27036788
   0.71724788  0.88497563  0.88376486
   0.28275212  0.11502437  0.11623514
   0.53227081  0.72591989  0.91616437
   0.46772919  0.27408011  0.08383563
   0.61375459  0.61199752  0.74733333
   0.38624541  0.38800248  0.25266667
   0.59429919  0.70038777  0.58377096
   0.40570081  0.29961223  0.41622904
   0.88886265  0.85297198  0.72798964
   0.11113735  0.14702802  0.27201036
   0.82105698  0.68940789  0.83018206
   0.17894302  0.31059211  0.16981794
   0.85950865  0.67649404  0.64911528
   0.14049135  0.32350596  0.35088472
   0.52201475  0.85437403  0.57345193
   0.47798525  0.14562597  0.42654807
   0.42788711  0.69008711  0.68280323
   0.57211289  0.30991289  0.31719677
   0.82766477  0.90947230  0.47372340
   0.17233523  0.09052770  0.52627660
   0.44750386  0.01575038  0.73148596
   0.55249614  0.98424962  0.26851404
   0.72477788  0.13263034  0.71452096
   0.27522212  0.86736966  0.28547904
   0.49229478  0.88607480  0.91549385
   0.50770522  0.11392520  0.08450615
   0.80191983  0.92822221  0.97743459
   0.19808017  0.07177779  0.02256541
   0.33741351  0.73755980  0.87845300
   0.66258649  0.26244020  0.12154700
   0.53291980  0.66649456  0.02736404
   0.46708020  0.33350544  0.97263596
   0.57449456  0.48011781  0.76110370
   0.42550544  0.51988219  0.23889630
   0.97190468  0.40841432  0.40376867
   0.02809532  0.59158568  0.59623133
   0.04053865  0.39668405  0.10972194
   0.95946135  0.60331595  0.89027806
   0.91894686  0.10719754  0.28092685
   0.08105314  0.89280246  0.71907315
   0.44831073  0.36359350  0.51286671
   0.55168927  0.63640650  0.48713329
unknown system                          
           1
     5.668655    0.050789    0.697755
     1.312295    8.485018    0.332238
    -0.096082   -0.009141    9.828327
   Li   B    H 
   2  18  28
Direct configuration=    13
   0.91730865  0.75187187  0.20855871
   0.08269135  0.24812813  0.79144129
   0.74650689  0.86547360  0.58166769
   0.25349311  0.13452640  0.41833231
   0.66164219  0.00827113  0.73066722
   0.33835781  0.99172887  0.26933278
   0.71796384  0.88514570  0.88634201
   0.28203616  0.11485430  0.11365799
   0.53334441  0.72533138  0.91758935
   0.46665559  0.27466862  0.08241065
   0.61602930  0.61012986  0.74661771
   0.38397070  0.38987014  0.25338229
   0.59312079  0.69986405  0.58328097
   0.40687921  0.30013595  0.41671903
   0.89115464  0.85154605  0.72859435
   0.10884536  0.14845395  0.27140565
   0.82447734  0.68786102  0.83135442
   0.17552266  0.31213898  0.16864558
   0.86092114  0.67584167  0.64886145
   0.13907886  0.32415833  0.35113855
   0.51952356  0.85626299  0.57275497
   0.48047644  0.14373701  0.42724503
   0.42586748  0.68974305  0.68125810
   0.57413252  0.31025695  0.31874190
   0.82668688  0.90948998  0.47354282
   0.17331312  0.09051002  0.52645718
   0.44862779  0.02337315  0.73162537
   0.55137221  0.97662685  0.26837463
   0.72652057  0.13510616  0.71624380
   0.27347943  0.86489384  0.28375620
   0.49241289  0.88751395  0.91610056
   0.50758711  0.11248605  0.08389944
   0.80272632  0.92799447  0.98025600
   0.19727368  0.07200553  0.01974400
   0.33682364  0.73669310  0.87921201
   0.66317636  0.26330690  0.12078799
   0.53342252  0.66581470  0.02928402
   0.46657748  0.33418530  0.97071598
   0.57485218  0.47694106  0.76093258
   0.42514782  0.52305894  0.23906742
   0.96830079  0.41125875  0.40456239
   0.03169921  0.58874125  0.59543761
   0.03651428  0.39920703  0.10822675
   0.96348572  0.60079297  0.89177325
   0.91481020  0.10687017  0.27972349
   0.08518980  0.89312983  0.72027651
   0.45071972  0.36422795  0.51510187
   0.54928028  0.63577205  0.48489813
unknown system                          
           1
     5.668320    0.049923    0.698509
     1.310641    8.486120    0.334779
    -0.094949   -0.006406    9.829605
   Li   B    H 
   2  18  28
Direct configuration=    14
   0.91739435  0.75286115  0.20859633
   0.08260565  0.24713885  0.79140367
   0.74625703  0.86568586  0.58268341
   0.25374297  0.13431414  0.41731659
   0.66164557  0.00861288  0.73086213
   0.33835443  0.99138712  0.26913787
   0.71884902  0.88397428  0.88446082
   0.28115098  0.11602572  0.11553918
   0.53363454  0.72537659  0.91696241
   0.46636546  0.27462341  0.08303759
   0.61499471  0.60947220  0.74745662
   0.38500529  0.39052780  0.25254338
   0.59266555  0.69983440  0.58222930
   0.40733445  0.30016560  0.41777070
   0.89329894  0.85223605  0.72914055
   0.10670106  0.14776395  0.27085945
   0.82281285  0.68805655  0.83121416
   0.17718715  0.31194345  0.16878584
   0.86280949  0.67453255  0.64843513
   0.13719051  0.32546745  0.35156487
   0.51949377  0.85592319  0.57284664
   0.48050623  0.14407681  0.42715336
   0.42571942  0.68940072  0.68168760
   0.57428058  0.31059928  0.31831240
   0.82751385  0.91007707  0.47239377
   0.17248615  0.08992293  0.52760623
   0.44671559  0.02346775  0.73169198
   0.55328441  0.97653225  0.26830802
   0.72823302  0.13608484  0.71618795
   0.27176698  0.86391516  0.28381205
   0.49167574  0.88736230  0.91627631
   0.50832426  0.11263770  0.08372369
   0.80393575  0.92842759  0.98147729
   0.19606425  0.07157241  0.01852271
   0.33659937  0.73668691  0.87916850
   0.66340063  0.26331309  0.12083150
   0.53357800  0.66546652  0.03001821
   0.46642200  0.33453348  0.96998179
   0.57525334  0.47741489  0.76078901
   0.42474666  0.52258511  0.23921099
   0.96943563  0.41057086  0.40422171
   0.03056437  0.58942914  0.59577829
   0.03537539  0.39976781  0.10783404
   0.96462461  0.60023219  0.89216596
   0.91568504  0.10727867  0.27966325
   0.08431496  0.89272133  0.72033675
   0.45051234  0.36374390  0.51466038
   0.54948766  0.63625610  0.48533962
unknown system                          
           1
     5.667770    0.053043    0.692281
     1.315824    8.479992    0.327053
    -0.104088   -0.013487    9.816682
   Li   B    H 
   2  18  28
Direct configuration=    15
   0.91737678  0.75265459  0.20858819
   0.08262322  0.24734541  0.79141181
   0.74630910  0.86564119  0.58247132
   0.25369090  0.13435881  0.41752868
   0.66164495  0.00854146  0.73082134
   0.33835505  0.99145854  0.26917866
   0.71866422  0.88421956  0.88485382
   0.28133578  0.11578044  0.11514618
   0.53357410  0.72536739  0.91709326
   0.46642590  0.27463261  0.08290674
   0.61521024  0.60960914  0.74728175
   0.38478976  0.39039086  0.25271825
   0.59276065  0.69984088  0.58244891
   0.40723935  0.30015912  0.41755109
   0.89285173  0.85209202  0.72902615
   0.10714827  0.14790798  0.27097385
   0.82316019  0.68801560  0.83124353
   0.17683981  0.31198440  0.16875647
   0.86241516  0.67480622  0.64852434
   0.13758484  0.32519378  0.35147566
   0.51949986  0.85599410  0.57282760
   0.48050014  0.14400590  0.42717240
   0.42575015  0.68947204  0.68159804
   0.57424985  0.31052796  0.31840196
   0.82734165  0.90995494  0.47263343
   0.17265835  0.09004506  0.52736657
   0.44711455  0.02344778  0.73167820
   0.55288545  0.97655222  0.26832180